 Entering Gaussian System, Link 0=g16
 Initial command:
 /common/software/install/migrated/gaussian/g16.c01.avx2/g16/l1.exe "/tmp/quach062/44821866/Gau-1931313.inp" -scrdir="/tmp/quach062/44821866/"
 Entering Link 1 = /common/software/install/migrated/gaussian/g16.c01.avx2/g16/l1.exe PID=   1931314.
  
 Copyright (c) 1988-2019, Gaussian, Inc.  All Rights Reserved.
  
 This is part of the Gaussian(R) 16 program.  It is based on
 the Gaussian(R) 09 system (copyright 2009, Gaussian, Inc.),
 the Gaussian(R) 03 system (copyright 2003, Gaussian, Inc.),
 the Gaussian(R) 98 system (copyright 1998, Gaussian, Inc.),
 the Gaussian(R) 94 system (copyright 1995, Gaussian, Inc.),
 the Gaussian 92(TM) system (copyright 1992, Gaussian, Inc.),
 the Gaussian 90(TM) system (copyright 1990, Gaussian, Inc.),
 the Gaussian 88(TM) system (copyright 1988, Gaussian, Inc.),
 the Gaussian 86(TM) system (copyright 1986, Carnegie Mellon
 University), and the Gaussian 82(TM) system (copyright 1983,
 Carnegie Mellon University). Gaussian is a federally registered
 trademark of Gaussian, Inc.
  
 This software contains proprietary and confidential information,
 including trade secrets, belonging to Gaussian, Inc.
  
 This software is provided under written license and may be
 used, copied, transmitted, or stored only in accord with that
 written license.
  
 The following legend is applicable only to US Government
 contracts under FAR:
  
                    RESTRICTED RIGHTS LEGEND
  
 Use, reproduction and disclosure by the US Government is
 subject to restrictions as set forth in subparagraphs (a)
 and (c) of the Commercial Computer Software - Restricted
 Rights clause in FAR 52.227-19.
  
 Gaussian, Inc.
 340 Quinnipiac St., Bldg. 40, Wallingford CT 06492
  
  
 ---------------------------------------------------------------
 Warning -- This program may not be used in any manner that
 competes with the business of Gaussian, Inc. or will provide
 assistance to any competitor of Gaussian, Inc.  The licensee
 of this program is prohibited from giving any competitor of
 Gaussian, Inc. access to this program.  By using this program,
 the user acknowledges that Gaussian, Inc. is engaged in the
 business of creating and licensing software in the field of
 computational chemistry and represents and warrants to the
 licensee that it is not a competitor of Gaussian, Inc. and that
 it will not use this program in any manner prohibited above.
 ---------------------------------------------------------------
  

 Cite this work as:
 Gaussian 16, Revision C.01,
 M. J. Frisch, G. W. Trucks, H. B. Schlegel, G. E. Scuseria, 
 M. A. Robb, J. R. Cheeseman, G. Scalmani, V. Barone, 
 G. A. Petersson, H. Nakatsuji, X. Li, M. Caricato, A. V. Marenich, 
 J. Bloino, B. G. Janesko, R. Gomperts, B. Mennucci, H. P. Hratchian, 
 J. V. Ortiz, A. F. Izmaylov, J. L. Sonnenberg, D. Williams-Young, 
 F. Ding, F. Lipparini, F. Egidi, J. Goings, B. Peng, A. Petrone, 
 T. Henderson, D. Ranasinghe, V. G. Zakrzewski, J. Gao, N. Rega, 
 G. Zheng, W. Liang, M. Hada, M. Ehara, K. Toyota, R. Fukuda, 
 J. Hasegawa, M. Ishida, T. Nakajima, Y. Honda, O. Kitao, H. Nakai, 
 T. Vreven, K. Throssell, J. A. Montgomery, Jr., J. E. Peralta, 
 F. Ogliaro, M. J. Bearpark, J. J. Heyd, E. N. Brothers, K. N. Kudin, 
 V. N. Staroverov, T. A. Keith, R. Kobayashi, J. Normand, 
 K. Raghavachari, A. P. Rendell, J. C. Burant, S. S. Iyengar, 
 J. Tomasi, M. Cossi, J. M. Millam, M. Klene, C. Adamo, R. Cammi, 
 J. W. Ochterski, R. L. Martin, K. Morokuma, O. Farkas, 
 J. B. Foresman, and D. J. Fox, Gaussian, Inc., Wallingford CT, 2019.
 
 ******************************************
 Gaussian 16:  ES64L-G16RevC.01  3-Jul-2019
                11-Dec-2025 
 ******************************************
 %chk=CoIIIH_DMF_S_v1.2_CA.chk
 %nprocshared=96
 Will use up to   96 processors via shared memory.
 %mem=59800MB
 ----------------------------------------------------------------------
 # opt=calcall # freq # pop=hirshfeld # m06l/genecp/auto # nosymm integ
 ral=grid=ultrafine # scf=(tight,intrep,xqc) # SCRF=(SMD,Solvent=n,n-Di
 MethylFormamide)
 ----------------------------------------------------------------------
 1/10=4,18=20,19=15,26=6,38=1/1,3;
 2/9=110,12=2,15=1,17=6,18=5,40=1/2;
 3/5=7,11=2,16=1,17=8,25=1,30=1,70=32201,71=2,72=148,74=-53,75=-5,82=28,140=1/1,2,3;
 4//1;
 5/5=2,8=3,13=1,17=20,32=2,38=5,53=148/2,8;
 8/6=4,10=90,11=11/1;
 11/6=1,8=1,9=11,15=111,16=1,31=1/1,2,10;
 10/6=1,31=1/2;
 6/7=2,8=2,9=2,10=2,18=1,28=1,79=1/1;
 7/10=1,25=1,30=1/1,2,3,16;
 1/10=4,18=20,19=15,26=6/3(3);
 2/9=110,15=1/2;
 7/8=1,9=1,25=1,30=1,44=-1/16;
 99//99;
 2/9=110,15=1/2;
 3/5=7,6=1,11=2,16=1,17=8,25=1,30=1,70=32205,71=2,72=148,74=-53,75=-5,82=7,140=1/1,2,3;
 4/5=5,16=3,69=1/1;
 5/5=2,8=3,13=1,17=20,32=2,38=5,53=148/2,8;
 8/6=4,10=90,11=11/1;
 11/6=1,8=1,9=11,15=111,16=1,31=1/1,2,10;
 10/6=1,31=1/2;
 7/10=1,25=1,30=1/1,2,3,16;
 1/10=4,18=20,19=15,26=6/3(-8);
 2/9=110,15=1/2;
 6/7=2,8=2,9=2,10=2,18=1,19=2,28=1,79=1/1;
 7/8=1,9=1,25=1,30=1,44=-1/16;
 99//99;
 ------------------------------
 Input: step 8 of first version
 ------------------------------
 Symbolic Z-matrix:
 Charge =  0 Multiplicity = 1
 Co                    0.06849   0.36472  -1.49608 
 O                     1.19145  -1.12042  -1.9659 
 O                    -1.20204  -0.9323   -0.85628 
 N                     1.30444   1.64093  -2.12292 
 N                    -1.05193   1.84117  -1.13117 
 C                     3.22851  -2.30674  -2.15937 
 C                    -3.35068  -1.87099  -0.58071 
 C                     2.47296  -1.08188  -2.16506 
 C                    -2.48305  -0.74556  -0.7888 
 C                     3.1855    0.13437  -2.41853 
 C                    -3.09351   0.54887  -0.88985 
 C                     5.30166  -1.05224  -2.68429 
 C                    -5.33995  -0.40325  -0.73138 
 C                     2.53243  -3.6455   -1.88569 
 C                    -2.75668  -3.26484  -0.34161 
 C                     4.58867  -2.24215  -2.41468 
 C                    -4.72526  -1.66193  -0.5817 
 C                     4.57413   0.11801  -2.67987 
 C                    -4.49457   0.68333  -0.85706 
 C                     6.80317  -1.11975  -2.95769 
 C                    -6.8584   -0.21053  -0.74131 
 C                     2.53862   1.41139  -2.43498 
 C                    -2.32903   1.76219  -0.9642 
 C                     0.75918   3.0011   -2.19774 
 C                    -0.29983   3.10893  -1.09166 
 C                     1.54062  -3.95179  -3.01779 
 C                     1.78836  -3.6074   -0.54065 
 C                     3.52625  -4.80731  -1.82361 
 C                    -1.87885  -3.24122   0.91993 
 C                    -3.83947  -4.32335  -0.12296 
 C                    -1.91391  -3.71527  -1.54433 
 C                     7.3977    0.26223  -3.22029 
 C                     7.52029  -1.73403  -1.748 
 C                     7.06187  -2.00013  -4.1879 
 C                    -7.28565   0.40331  -2.08139 
 C                    -7.26589   0.74119   0.39109 
 C                    -7.61084  -1.52731  -0.55502 
 C                     0.16859   3.25821  -3.58437 
 C                    -1.1093    4.39398  -1.20405 
 C                    -0.56835   4.58864  -3.64085 
 C                    -1.67776   4.62839  -2.59859 
 H                     5.15475  -3.16812  -2.40557 
 H                    -5.36664  -2.52431  -0.4479 
 H                     5.05312   1.0737   -2.87554 
 H                    -4.90305   1.68967  -0.93913 
 H                     3.15717   2.26684  -2.72687 
 H                    -2.90272   2.68545  -0.85139 
 H                     1.55703   3.72942  -1.99991 
 H                     0.2291    3.09836  -0.12918 
 H                     1.03064  -4.90424  -2.83426 
 H                     0.78222  -3.17319  -3.10282 
 H                     2.05848  -4.03269  -3.97963 
 H                     2.48295  -3.40551   0.28244 
 H                     1.01167  -2.84227  -0.53092 
 H                     1.322    -4.57958  -0.3449 
 H                     2.98516  -5.73405  -1.60943 
 H                     4.05851  -4.95307  -2.76879 
 H                     4.27199  -4.67279  -1.03339 
 H                    -1.44723  -4.23233   1.09954 
 H                    -1.06191  -2.52498   0.82656 
 H                    -2.47133  -2.97493   1.802 
 H                    -3.36541  -5.29369   0.05442 
 H                    -4.46821  -4.10333   0.74572 
 H                    -4.49394  -4.4345   -0.99353 
 H                    -2.53213  -3.78348  -2.44549 
 H                    -1.09025  -3.02698  -1.73668 
 H                    -1.4962   -4.71134  -1.35702 
 H                     8.47127   0.1753   -3.4133 
 H                     6.94523   0.74361  -4.093 
 H                     7.271     0.93179  -2.36377 
 H                     8.5984   -1.7973   -1.93059 
 H                     7.36818  -1.12933  -0.8481 
 H                     7.1632   -2.74578  -1.53422 
 H                     6.68854  -3.01849  -4.0449 
 H                     6.5759   -1.58878  -5.07859 
 H                     8.13543  -2.0687   -4.39406 
 H                    -8.36855   0.56787  -2.10512 
 H                    -6.80051   1.36857  -2.25553 
 H                    -7.02977  -0.25461  -2.91832 
 H                    -6.98412   0.33717   1.36885 
 H                    -6.79246   1.72174   0.2864 
 H                    -8.35013   0.89736   0.39348 
 H                    -8.68939  -1.34287  -0.57009 
 H                    -7.39003  -2.24353  -1.35275 
 H                    -7.37345  -2.00501   0.40078 
 H                    -0.5195    2.43942  -3.82289 
 H                     0.97835   3.21864  -4.32106 
 H                    -0.42672   5.21547  -0.95453 
 H                    -1.89093   4.4182   -0.43852 
 H                    -0.97502   4.74643  -4.64475 
 H                     0.13517   5.41235  -3.45647 
 H                    -2.20286   5.58835  -2.62504 
 H                    -2.42526   3.8601   -2.83845 
 H                     0.67292   0.47471  -0.17525 
 O                    -1.00621   0.20869  -3.38069 
 N                    -2.29013  -1.31244  -4.48884 
 C                    -3.37584  -0.38904  -4.75039 
 C                    -2.40867  -2.64615  -5.03973 
 C                    -1.20716  -0.93921  -3.80155 
 H                    -4.31319  -0.80567  -4.36944 
 H                    -3.48437  -0.21955  -5.82595 
 H                    -3.17086   0.55881  -4.25482 
 H                    -3.32364  -3.12548  -4.67897 
 H                    -1.54828  -3.24608  -4.73993 
 H                    -2.44905  -2.60507  -6.13281 
 H                    -0.48681  -1.7506   -3.62427 
 
 Add virtual bond connecting atoms H106       and H51        Dist= 3.73D+00.

 GradGradGradGradGradGradGradGradGradGradGradGradGradGradGradGradGradGrad
 Berny optimization.
 Initialization pass.
                           ----------------------------
                           !    Initial Parameters    !
                           ! (Angstroms and Degrees)  !
 --------------------------                            --------------------------
 ! Name  Definition              Value          Derivative Info.                !
 --------------------------------------------------------------------------------
 ! R1    R(1,2)                  1.9203         calculate D2E/DX2 analytically  !
 ! R2    R(1,3)                  1.925          calculate D2E/DX2 analytically  !
 ! R3    R(1,4)                  1.8839         calculate D2E/DX2 analytically  !
 ! R4    R(1,5)                  1.889          calculate D2E/DX2 analytically  !
 ! R5    R(1,94)                 1.4567         calculate D2E/DX2 analytically  !
 ! R6    R(2,8)                  1.2975         calculate D2E/DX2 analytically  !
 ! R7    R(3,9)                  1.2963         calculate D2E/DX2 analytically  !
 ! R8    R(4,22)                 1.2935         calculate D2E/DX2 analytically  !
 ! R9    R(4,24)                 1.4673         calculate D2E/DX2 analytically  !
 ! R10   R(5,23)                 1.2904         calculate D2E/DX2 analytically  !
 ! R11   R(5,25)                 1.4746         calculate D2E/DX2 analytically  !
 ! R12   R(6,8)                  1.4392         calculate D2E/DX2 analytically  !
 ! R13   R(6,14)                 1.5335         calculate D2E/DX2 analytically  !
 ! R14   R(6,16)                 1.3854         calculate D2E/DX2 analytically  !
 ! R15   R(7,9)                  1.4362         calculate D2E/DX2 analytically  !
 ! R16   R(7,15)                 1.5339         calculate D2E/DX2 analytically  !
 ! R17   R(7,17)                 1.3904         calculate D2E/DX2 analytically  !
 ! R18   R(8,10)                 1.4322         calculate D2E/DX2 analytically  !
 ! R19   R(9,11)                 1.4347         calculate D2E/DX2 analytically  !
 ! R20   R(10,18)                1.4131         calculate D2E/DX2 analytically  !
 ! R21   R(10,22)                1.4316         calculate D2E/DX2 analytically  !
 ! R22   R(11,19)                1.4079         calculate D2E/DX2 analytically  !
 ! R23   R(11,23)                1.436          calculate D2E/DX2 analytically  !
 ! R24   R(12,16)                1.4131         calculate D2E/DX2 analytically  !
 ! R25   R(12,18)                1.378          calculate D2E/DX2 analytically  !
 ! R26   R(12,20)                1.5277         calculate D2E/DX2 analytically  !
 ! R27   R(13,17)                1.4087         calculate D2E/DX2 analytically  !
 ! R28   R(13,19)                1.3824         calculate D2E/DX2 analytically  !
 ! R29   R(13,21)                1.5307         calculate D2E/DX2 analytically  !
 ! R30   R(14,26)                1.5359         calculate D2E/DX2 analytically  !
 ! R31   R(14,27)                1.5376         calculate D2E/DX2 analytically  !
 ! R32   R(14,28)                1.5301         calculate D2E/DX2 analytically  !
 ! R33   R(15,29)                1.5371         calculate D2E/DX2 analytically  !
 ! R34   R(15,30)                1.5299         calculate D2E/DX2 analytically  !
 ! R35   R(15,31)                1.5361         calculate D2E/DX2 analytically  !
 ! R36   R(16,42)                1.0853         calculate D2E/DX2 analytically  !
 ! R37   R(17,43)                1.083          calculate D2E/DX2 analytically  !
 ! R38   R(18,44)                1.0868         calculate D2E/DX2 analytically  !
 ! R39   R(19,45)                1.0892         calculate D2E/DX2 analytically  !
 ! R40   R(20,32)                1.5272         calculate D2E/DX2 analytically  !
 ! R41   R(20,33)                1.5346         calculate D2E/DX2 analytically  !
 ! R42   R(20,34)                1.5347         calculate D2E/DX2 analytically  !
 ! R43   R(21,35)                1.5347         calculate D2E/DX2 analytically  !
 ! R44   R(21,36)                1.5343         calculate D2E/DX2 analytically  !
 ! R45   R(21,37)                1.528          calculate D2E/DX2 analytically  !
 ! R46   R(22,46)                1.0953         calculate D2E/DX2 analytically  !
 ! R47   R(23,47)                1.0928         calculate D2E/DX2 analytically  !
 ! R48   R(24,25)                1.5351         calculate D2E/DX2 analytically  !
 ! R49   R(24,38)                1.5289         calculate D2E/DX2 analytically  !
 ! R50   R(24,48)                1.0982         calculate D2E/DX2 analytically  !
 ! R51   R(25,39)                1.5229         calculate D2E/DX2 analytically  !
 ! R52   R(25,49)                1.0983         calculate D2E/DX2 analytically  !
 ! R53   R(26,50)                1.0959         calculate D2E/DX2 analytically  !
 ! R54   R(26,51)                1.0902         calculate D2E/DX2 analytically  !
 ! R55   R(26,52)                1.0954         calculate D2E/DX2 analytically  !
 ! R56   R(27,53)                1.0958         calculate D2E/DX2 analytically  !
 ! R57   R(27,54)                1.0903         calculate D2E/DX2 analytically  !
 ! R58   R(27,55)                1.0959         calculate D2E/DX2 analytically  !
 ! R59   R(28,56)                1.0943         calculate D2E/DX2 analytically  !
 ! R60   R(28,57)                1.0945         calculate D2E/DX2 analytically  !
 ! R61   R(28,58)                1.0948         calculate D2E/DX2 analytically  !
 ! R62   R(29,59)                1.0958         calculate D2E/DX2 analytically  !
 ! R63   R(29,60)                1.0905         calculate D2E/DX2 analytically  !
 ! R64   R(29,61)                1.0954         calculate D2E/DX2 analytically  !
 ! R65   R(30,62)                1.0944         calculate D2E/DX2 analytically  !
 ! R66   R(30,63)                1.0947         calculate D2E/DX2 analytically  !
 ! R67   R(30,64)                1.0948         calculate D2E/DX2 analytically  !
 ! R68   R(31,65)                1.095          calculate D2E/DX2 analytically  !
 ! R69   R(31,66)                1.0905         calculate D2E/DX2 analytically  !
 ! R70   R(31,67)                1.0962         calculate D2E/DX2 analytically  !
 ! R71   R(32,68)                1.0942         calculate D2E/DX2 analytically  !
 ! R72   R(32,69)                1.0946         calculate D2E/DX2 analytically  !
 ! R73   R(32,70)                1.0945         calculate D2E/DX2 analytically  !
 ! R74   R(33,71)                1.0953         calculate D2E/DX2 analytically  !
 ! R75   R(33,72)                1.0948         calculate D2E/DX2 analytically  !
 ! R76   R(33,73)                1.094          calculate D2E/DX2 analytically  !
 ! R77   R(34,74)                1.094          calculate D2E/DX2 analytically  !
 ! R78   R(34,75)                1.0949         calculate D2E/DX2 analytically  !
 ! R79   R(34,76)                1.0953         calculate D2E/DX2 analytically  !
 ! R80   R(35,77)                1.0956         calculate D2E/DX2 analytically  !
 ! R81   R(35,78)                1.0943         calculate D2E/DX2 analytically  !
 ! R82   R(35,79)                1.0949         calculate D2E/DX2 analytically  !
 ! R83   R(36,80)                1.0948         calculate D2E/DX2 analytically  !
 ! R84   R(36,81)                1.0939         calculate D2E/DX2 analytically  !
 ! R85   R(36,82)                1.0954         calculate D2E/DX2 analytically  !
 ! R86   R(37,83)                1.0943         calculate D2E/DX2 analytically  !
 ! R87   R(37,84)                1.0946         calculate D2E/DX2 analytically  !
 ! R88   R(37,85)                1.0946         calculate D2E/DX2 analytically  !
 ! R89   R(38,40)                1.5219         calculate D2E/DX2 analytically  !
 ! R90   R(38,86)                1.0958         calculate D2E/DX2 analytically  !
 ! R91   R(38,87)                1.0954         calculate D2E/DX2 analytically  !
 ! R92   R(39,41)                1.5241         calculate D2E/DX2 analytically  !
 ! R93   R(39,88)                1.0968         calculate D2E/DX2 analytically  !
 ! R94   R(39,89)                1.0943         calculate D2E/DX2 analytically  !
 ! R95   R(40,41)                1.5227         calculate D2E/DX2 analytically  !
 ! R96   R(40,90)                1.0946         calculate D2E/DX2 analytically  !
 ! R97   R(40,91)                1.0988         calculate D2E/DX2 analytically  !
 ! R98   R(41,92)                1.0945         calculate D2E/DX2 analytically  !
 ! R99   R(41,93)                1.0984         calculate D2E/DX2 analytically  !
 ! R100  R(51,106)               1.9764         calculate D2E/DX2 analytically  !
 ! R101  R(95,99)                1.239          calculate D2E/DX2 analytically  !
 ! R102  R(96,97)                1.4491         calculate D2E/DX2 analytically  !
 ! R103  R(96,98)                1.4479         calculate D2E/DX2 analytically  !
 ! R104  R(96,99)                1.3359         calculate D2E/DX2 analytically  !
 ! R105  R(97,100)               1.0942         calculate D2E/DX2 analytically  !
 ! R106  R(97,101)               1.0942         calculate D2E/DX2 analytically  !
 ! R107  R(97,102)               1.089          calculate D2E/DX2 analytically  !
 ! R108  R(98,103)               1.0941         calculate D2E/DX2 analytically  !
 ! R109  R(98,104)               1.0909         calculate D2E/DX2 analytically  !
 ! R110  R(98,105)               1.0946         calculate D2E/DX2 analytically  !
 ! R111  R(99,106)               1.0994         calculate D2E/DX2 analytically  !
 ! A1    A(2,1,3)               86.9158         calculate D2E/DX2 analytically  !
 ! A2    A(2,1,4)               93.3738         calculate D2E/DX2 analytically  !
 ! A3    A(2,1,94)              92.1544         calculate D2E/DX2 analytically  !
 ! A4    A(3,1,5)               94.0684         calculate D2E/DX2 analytically  !
 ! A5    A(3,1,94)              91.3397         calculate D2E/DX2 analytically  !
 ! A6    A(4,1,5)               85.6369         calculate D2E/DX2 analytically  !
 ! A7    A(4,1,94)              88.758          calculate D2E/DX2 analytically  !
 ! A8    A(5,1,94)              90.6836         calculate D2E/DX2 analytically  !
 ! A9    A(1,2,8)              126.3128         calculate D2E/DX2 analytically  !
 ! A10   A(1,3,9)              124.9217         calculate D2E/DX2 analytically  !
 ! A11   A(1,4,22)             125.8739         calculate D2E/DX2 analytically  !
 ! A12   A(1,4,24)             113.6486         calculate D2E/DX2 analytically  !
 ! A13   A(22,4,24)            120.4472         calculate D2E/DX2 analytically  !
 ! A14   A(1,5,23)             124.3442         calculate D2E/DX2 analytically  !
 ! A15   A(1,5,25)             112.0012         calculate D2E/DX2 analytically  !
 ! A16   A(23,5,25)            123.6382         calculate D2E/DX2 analytically  !
 ! A17   A(8,6,14)             120.3581         calculate D2E/DX2 analytically  !
 ! A18   A(8,6,16)             118.3604         calculate D2E/DX2 analytically  !
 ! A19   A(14,6,16)            121.2802         calculate D2E/DX2 analytically  !
 ! A20   A(9,7,15)             120.0473         calculate D2E/DX2 analytically  !
 ! A21   A(9,7,17)             118.6411         calculate D2E/DX2 analytically  !
 ! A22   A(15,7,17)            121.3046         calculate D2E/DX2 analytically  !
 ! A23   A(2,8,6)              119.5157         calculate D2E/DX2 analytically  !
 ! A24   A(2,8,10)             122.9414         calculate D2E/DX2 analytically  !
 ! A25   A(6,8,10)             117.5331         calculate D2E/DX2 analytically  !
 ! A26   A(3,9,7)              119.4491         calculate D2E/DX2 analytically  !
 ! A27   A(3,9,11)             123.1453         calculate D2E/DX2 analytically  !
 ! A28   A(7,9,11)             117.3971         calculate D2E/DX2 analytically  !
 ! A29   A(8,10,18)            120.7837         calculate D2E/DX2 analytically  !
 ! A30   A(8,10,22)            122.3263         calculate D2E/DX2 analytically  !
 ! A31   A(18,10,22)           116.8868         calculate D2E/DX2 analytically  !
 ! A32   A(9,11,19)            120.5278         calculate D2E/DX2 analytically  !
 ! A33   A(9,11,23)            122.6459         calculate D2E/DX2 analytically  !
 ! A34   A(19,11,23)           116.7624         calculate D2E/DX2 analytically  !
 ! A35   A(16,12,18)           116.622          calculate D2E/DX2 analytically  !
 ! A36   A(16,12,20)           119.5273         calculate D2E/DX2 analytically  !
 ! A37   A(18,12,20)           123.8506         calculate D2E/DX2 analytically  !
 ! A38   A(17,13,19)           116.4299         calculate D2E/DX2 analytically  !
 ! A39   A(17,13,21)           123.0963         calculate D2E/DX2 analytically  !
 ! A40   A(19,13,21)           120.4697         calculate D2E/DX2 analytically  !
 ! A41   A(6,14,26)            109.6122         calculate D2E/DX2 analytically  !
 ! A42   A(6,14,27)            110.7402         calculate D2E/DX2 analytically  !
 ! A43   A(6,14,28)            112.0414         calculate D2E/DX2 analytically  !
 ! A44   A(26,14,27)           109.7079         calculate D2E/DX2 analytically  !
 ! A45   A(26,14,28)           107.331          calculate D2E/DX2 analytically  !
 ! A46   A(27,14,28)           107.3149         calculate D2E/DX2 analytically  !
 ! A47   A(7,15,29)            109.58           calculate D2E/DX2 analytically  !
 ! A48   A(7,15,30)            112.1426         calculate D2E/DX2 analytically  !
 ! A49   A(7,15,31)            110.9083         calculate D2E/DX2 analytically  !
 ! A50   A(29,15,30)           107.3087         calculate D2E/DX2 analytically  !
 ! A51   A(29,15,31)           109.4985         calculate D2E/DX2 analytically  !
 ! A52   A(30,15,31)           107.2962         calculate D2E/DX2 analytically  !
 ! A53   A(6,16,12)            124.7342         calculate D2E/DX2 analytically  !
 ! A54   A(6,16,42)            118.0822         calculate D2E/DX2 analytically  !
 ! A55   A(12,16,42)           117.1832         calculate D2E/DX2 analytically  !
 ! A56   A(7,17,13)            124.4579         calculate D2E/DX2 analytically  !
 ! A57   A(7,17,43)            117.7532         calculate D2E/DX2 analytically  !
 ! A58   A(13,17,43)           117.7857         calculate D2E/DX2 analytically  !
 ! A59   A(10,18,12)           121.9551         calculate D2E/DX2 analytically  !
 ! A60   A(10,18,44)           117.1446         calculate D2E/DX2 analytically  !
 ! A61   A(12,18,44)           120.8998         calculate D2E/DX2 analytically  !
 ! A62   A(11,19,13)           122.3845         calculate D2E/DX2 analytically  !
 ! A63   A(11,19,45)           117.3681         calculate D2E/DX2 analytically  !
 ! A64   A(13,19,45)           120.2469         calculate D2E/DX2 analytically  !
 ! A65   A(12,20,32)           111.926          calculate D2E/DX2 analytically  !
 ! A66   A(12,20,33)           109.6281         calculate D2E/DX2 analytically  !
 ! A67   A(12,20,34)           109.5407         calculate D2E/DX2 analytically  !
 ! A68   A(32,20,33)           108.4127         calculate D2E/DX2 analytically  !
 ! A69   A(32,20,34)           108.3993         calculate D2E/DX2 analytically  !
 ! A70   A(33,20,34)           108.8736         calculate D2E/DX2 analytically  !
 ! A71   A(13,21,35)           109.4025         calculate D2E/DX2 analytically  !
 ! A72   A(13,21,36)           109.6806         calculate D2E/DX2 analytically  !
 ! A73   A(13,21,37)           112.2846         calculate D2E/DX2 analytically  !
 ! A74   A(35,21,36)           108.8098         calculate D2E/DX2 analytically  !
 ! A75   A(35,21,37)           108.304          calculate D2E/DX2 analytically  !
 ! A76   A(36,21,37)           108.2877         calculate D2E/DX2 analytically  !
 ! A77   A(4,22,10)            125.9181         calculate D2E/DX2 analytically  !
 ! A78   A(4,22,46)            117.68           calculate D2E/DX2 analytically  !
 ! A79   A(10,22,46)           116.3966         calculate D2E/DX2 analytically  !
 ! A80   A(5,23,11)            125.8241         calculate D2E/DX2 analytically  !
 ! A81   A(5,23,47)            118.7633         calculate D2E/DX2 analytically  !
 ! A82   A(11,23,47)           115.4057         calculate D2E/DX2 analytically  !
 ! A83   A(4,24,25)            106.5432         calculate D2E/DX2 analytically  !
 ! A84   A(4,24,38)            110.223          calculate D2E/DX2 analytically  !
 ! A85   A(4,24,48)            109.6087         calculate D2E/DX2 analytically  !
 ! A86   A(25,24,38)           112.0349         calculate D2E/DX2 analytically  !
 ! A87   A(25,24,48)           108.953          calculate D2E/DX2 analytically  !
 ! A88   A(38,24,48)           109.4185         calculate D2E/DX2 analytically  !
 ! A89   A(5,25,24)            105.7929         calculate D2E/DX2 analytically  !
 ! A90   A(5,25,39)            116.8963         calculate D2E/DX2 analytically  !
 ! A91   A(5,25,49)            105.1192         calculate D2E/DX2 analytically  !
 ! A92   A(24,25,39)           111.8877         calculate D2E/DX2 analytically  !
 ! A93   A(24,25,49)           107.3688         calculate D2E/DX2 analytically  !
 ! A94   A(39,25,49)           109.1945         calculate D2E/DX2 analytically  !
 ! A95   A(14,26,50)           110.5104         calculate D2E/DX2 analytically  !
 ! A96   A(14,26,51)           111.3619         calculate D2E/DX2 analytically  !
 ! A97   A(14,26,52)           110.8952         calculate D2E/DX2 analytically  !
 ! A98   A(50,26,51)           108.061          calculate D2E/DX2 analytically  !
 ! A99   A(50,26,52)           107.6305         calculate D2E/DX2 analytically  !
 ! A100  A(51,26,52)           108.2482         calculate D2E/DX2 analytically  !
 ! A101  A(14,27,53)           110.7873         calculate D2E/DX2 analytically  !
 ! A102  A(14,27,54)           111.7102         calculate D2E/DX2 analytically  !
 ! A103  A(14,27,55)           109.8891         calculate D2E/DX2 analytically  !
 ! A104  A(53,27,54)           108.3949         calculate D2E/DX2 analytically  !
 ! A105  A(53,27,55)           107.4            calculate D2E/DX2 analytically  !
 ! A106  A(54,27,55)           108.5301         calculate D2E/DX2 analytically  !
 ! A107  A(14,28,56)           109.257          calculate D2E/DX2 analytically  !
 ! A108  A(14,28,57)           112.4536         calculate D2E/DX2 analytically  !
 ! A109  A(14,28,58)           112.2337         calculate D2E/DX2 analytically  !
 ! A110  A(56,28,57)           107.2594         calculate D2E/DX2 analytically  !
 ! A111  A(56,28,58)           107.433          calculate D2E/DX2 analytically  !
 ! A112  A(57,28,58)           107.9645         calculate D2E/DX2 analytically  !
 ! A113  A(15,29,59)           110.216          calculate D2E/DX2 analytically  !
 ! A114  A(15,29,60)           111.5719         calculate D2E/DX2 analytically  !
 ! A115  A(15,29,61)           110.8378         calculate D2E/DX2 analytically  !
 ! A116  A(59,29,60)           108.2407         calculate D2E/DX2 analytically  !
 ! A117  A(59,29,61)           107.5121         calculate D2E/DX2 analytically  !
 ! A118  A(60,29,61)           108.3295         calculate D2E/DX2 analytically  !
 ! A119  A(15,30,62)           109.2707         calculate D2E/DX2 analytically  !
 ! A120  A(15,30,63)           112.3863         calculate D2E/DX2 analytically  !
 ! A121  A(15,30,64)           112.3135         calculate D2E/DX2 analytically  !
 ! A122  A(62,30,63)           107.3608         calculate D2E/DX2 analytically  !
 ! A123  A(62,30,64)           107.326          calculate D2E/DX2 analytically  !
 ! A124  A(63,30,64)           107.9428         calculate D2E/DX2 analytically  !
 ! A125  A(15,31,65)           110.6635         calculate D2E/DX2 analytically  !
 ! A126  A(15,31,66)           111.5563         calculate D2E/DX2 analytically  !
 ! A127  A(15,31,67)           109.981          calculate D2E/DX2 analytically  !
 ! A128  A(65,31,66)           108.6994         calculate D2E/DX2 analytically  !
 ! A129  A(65,31,67)           107.4074         calculate D2E/DX2 analytically  !
 ! A130  A(66,31,67)           108.4117         calculate D2E/DX2 analytically  !
 ! A131  A(20,32,68)           109.8999         calculate D2E/DX2 analytically  !
 ! A132  A(20,32,69)           111.9715         calculate D2E/DX2 analytically  !
 ! A133  A(20,32,70)           111.959          calculate D2E/DX2 analytically  !
 ! A134  A(68,32,69)           107.4501         calculate D2E/DX2 analytically  !
 ! A135  A(68,32,70)           107.4698         calculate D2E/DX2 analytically  !
 ! A136  A(69,32,70)           107.8818         calculate D2E/DX2 analytically  !
 ! A137  A(20,33,71)           110.5906         calculate D2E/DX2 analytically  !
 ! A138  A(20,33,72)           111.2178         calculate D2E/DX2 analytically  !
 ! A139  A(20,33,73)           111.8205         calculate D2E/DX2 analytically  !
 ! A140  A(71,33,72)           107.7997         calculate D2E/DX2 analytically  !
 ! A141  A(71,33,73)           107.4843         calculate D2E/DX2 analytically  !
 ! A142  A(72,33,73)           107.7482         calculate D2E/DX2 analytically  !
 ! A143  A(20,34,74)           111.8184         calculate D2E/DX2 analytically  !
 ! A144  A(20,34,75)           111.2091         calculate D2E/DX2 analytically  !
 ! A145  A(20,34,76)           110.6097         calculate D2E/DX2 analytically  !
 ! A146  A(74,34,75)           107.7343         calculate D2E/DX2 analytically  !
 ! A147  A(74,34,76)           107.5046         calculate D2E/DX2 analytically  !
 ! A148  A(75,34,76)           107.7846         calculate D2E/DX2 analytically  !
 ! A149  A(21,35,77)           110.7427         calculate D2E/DX2 analytically  !
 ! A150  A(21,35,78)           111.6148         calculate D2E/DX2 analytically  !
 ! A151  A(21,35,79)           111.2271         calculate D2E/DX2 analytically  !
 ! A152  A(77,35,78)           107.5939         calculate D2E/DX2 analytically  !
 ! A153  A(77,35,79)           107.7403         calculate D2E/DX2 analytically  !
 ! A154  A(78,35,79)           107.7461         calculate D2E/DX2 analytically  !
 ! A155  A(21,36,80)           111.2156         calculate D2E/DX2 analytically  !
 ! A156  A(21,36,81)           111.7434         calculate D2E/DX2 analytically  !
 ! A157  A(21,36,82)           110.6655         calculate D2E/DX2 analytically  !
 ! A158  A(80,36,81)           107.7506         calculate D2E/DX2 analytically  !
 ! A159  A(80,36,82)           107.7819         calculate D2E/DX2 analytically  !
 ! A160  A(81,36,82)           107.5048         calculate D2E/DX2 analytically  !
 ! A161  A(21,37,83)           109.7798         calculate D2E/DX2 analytically  !
 ! A162  A(21,37,84)           112.0676         calculate D2E/DX2 analytically  !
 ! A163  A(21,37,85)           112.071          calculate D2E/DX2 analytically  !
 ! A164  A(83,37,84)           107.4023         calculate D2E/DX2 analytically  !
 ! A165  A(83,37,85)           107.4173         calculate D2E/DX2 analytically  !
 ! A166  A(84,37,85)           107.8837         calculate D2E/DX2 analytically  !
 ! A167  A(24,38,40)           111.5737         calculate D2E/DX2 analytically  !
 ! A168  A(24,38,86)           108.3191         calculate D2E/DX2 analytically  !
 ! A169  A(24,38,87)           108.5597         calculate D2E/DX2 analytically  !
 ! A170  A(40,38,86)           109.9412         calculate D2E/DX2 analytically  !
 ! A171  A(40,38,87)           111.3801         calculate D2E/DX2 analytically  !
 ! A172  A(86,38,87)           106.9061         calculate D2E/DX2 analytically  !
 ! A173  A(25,39,41)           113.3012         calculate D2E/DX2 analytically  !
 ! A174  A(25,39,88)           106.5243         calculate D2E/DX2 analytically  !
 ! A175  A(25,39,89)           110.2858         calculate D2E/DX2 analytically  !
 ! A176  A(41,39,88)           108.9703         calculate D2E/DX2 analytically  !
 ! A177  A(41,39,89)           111.7316         calculate D2E/DX2 analytically  !
 ! A178  A(88,39,89)           105.5919         calculate D2E/DX2 analytically  !
 ! A179  A(38,40,41)           110.4998         calculate D2E/DX2 analytically  !
 ! A180  A(38,40,90)           109.8738         calculate D2E/DX2 analytically  !
 ! A181  A(38,40,91)           109.8195         calculate D2E/DX2 analytically  !
 ! A182  A(41,40,90)           110.6902         calculate D2E/DX2 analytically  !
 ! A183  A(41,40,91)           109.393          calculate D2E/DX2 analytically  !
 ! A184  A(90,40,91)           106.4811         calculate D2E/DX2 analytically  !
 ! A185  A(39,41,40)           110.5194         calculate D2E/DX2 analytically  !
 ! A186  A(39,41,92)           109.6311         calculate D2E/DX2 analytically  !
 ! A187  A(39,41,93)           110.2458         calculate D2E/DX2 analytically  !
 ! A188  A(40,41,92)           110.8478         calculate D2E/DX2 analytically  !
 ! A189  A(40,41,93)           109.1518         calculate D2E/DX2 analytically  !
 ! A190  A(92,41,93)           106.3622         calculate D2E/DX2 analytically  !
 ! A191  A(97,96,98)           117.1924         calculate D2E/DX2 analytically  !
 ! A192  A(97,96,99)           121.4813         calculate D2E/DX2 analytically  !
 ! A193  A(98,96,99)           121.2988         calculate D2E/DX2 analytically  !
 ! A194  A(96,97,100)          109.6547         calculate D2E/DX2 analytically  !
 ! A195  A(96,97,101)          110.5133         calculate D2E/DX2 analytically  !
 ! A196  A(96,97,102)          109.3581         calculate D2E/DX2 analytically  !
 ! A197  A(100,97,101)         108.4342         calculate D2E/DX2 analytically  !
 ! A198  A(100,97,102)         109.524          calculate D2E/DX2 analytically  !
 ! A199  A(101,97,102)         109.3381         calculate D2E/DX2 analytically  !
 ! A200  A(96,98,103)          110.278          calculate D2E/DX2 analytically  !
 ! A201  A(96,98,104)          109.7215         calculate D2E/DX2 analytically  !
 ! A202  A(96,98,105)          110.3897         calculate D2E/DX2 analytically  !
 ! A203  A(103,98,104)         109.1484         calculate D2E/DX2 analytically  !
 ! A204  A(103,98,105)         108.3527         calculate D2E/DX2 analytically  !
 ! A205  A(104,98,105)         108.915          calculate D2E/DX2 analytically  !
 ! A206  A(95,99,96)           124.4087         calculate D2E/DX2 analytically  !
 ! A207  A(95,99,106)          121.5141         calculate D2E/DX2 analytically  !
 ! A208  A(96,99,106)          114.0759         calculate D2E/DX2 analytically  !
 ! A209  L(2,1,5,3,-1)         180.9842         calculate D2E/DX2 analytically  !
 ! A210  L(3,1,4,2,-1)         180.2896         calculate D2E/DX2 analytically  !
 ! A211  L(26,51,106,8,-1)     181.452          calculate D2E/DX2 analytically  !
 ! A212  L(51,106,99,1,-1)     175.1717         calculate D2E/DX2 analytically  !
 ! A213  L(2,1,5,3,-2)         182.8668         calculate D2E/DX2 analytically  !
 ! A214  L(3,1,4,2,-2)         179.8915         calculate D2E/DX2 analytically  !
 ! A215  L(26,51,106,8,-2)     168.9616         calculate D2E/DX2 analytically  !
 ! A216  L(51,106,99,1,-2)     183.7049         calculate D2E/DX2 analytically  !
 ! D1    D(3,1,2,8)           -159.7235         calculate D2E/DX2 analytically  !
 ! D2    D(4,1,2,8)             20.3851         calculate D2E/DX2 analytically  !
 ! D3    D(94,1,2,8)           -68.497          calculate D2E/DX2 analytically  !
 ! D4    D(2,1,3,9)           -153.5182         calculate D2E/DX2 analytically  !
 ! D5    D(5,1,3,9)             23.615          calculate D2E/DX2 analytically  !
 ! D6    D(94,1,3,9)           114.3959         calculate D2E/DX2 analytically  !
 ! D7    D(2,1,4,22)           -12.8313         calculate D2E/DX2 analytically  !
 ! D8    D(2,1,4,24)           169.1768         calculate D2E/DX2 analytically  !
 ! D9    D(5,1,4,22)           170.0347         calculate D2E/DX2 analytically  !
 ! D10   D(5,1,4,24)            -7.9572         calculate D2E/DX2 analytically  !
 ! D11   D(94,1,4,22)           79.2541         calculate D2E/DX2 analytically  !
 ! D12   D(94,1,4,24)          -98.7378         calculate D2E/DX2 analytically  !
 ! D13   D(3,1,5,23)           -19.2634         calculate D2E/DX2 analytically  !
 ! D14   D(3,1,5,25)           162.1647         calculate D2E/DX2 analytically  !
 ! D15   D(4,1,5,23)           160.6426         calculate D2E/DX2 analytically  !
 ! D16   D(4,1,5,25)           -17.9293         calculate D2E/DX2 analytically  !
 ! D17   D(94,1,5,23)         -110.6552         calculate D2E/DX2 analytically  !
 ! D18   D(94,1,5,25)           70.7729         calculate D2E/DX2 analytically  !
 ! D19   D(1,2,8,6)            163.5555         calculate D2E/DX2 analytically  !
 ! D20   D(1,2,8,10)           -17.6091         calculate D2E/DX2 analytically  !
 ! D21   D(1,3,9,7)            166.2006         calculate D2E/DX2 analytically  !
 ! D22   D(1,3,9,11)           -14.8918         calculate D2E/DX2 analytically  !
 ! D23   D(1,4,22,10)            2.8578         calculate D2E/DX2 analytically  !
 ! D24   D(1,4,22,46)         -176.2688         calculate D2E/DX2 analytically  !
 ! D25   D(24,4,22,10)        -179.276          calculate D2E/DX2 analytically  !
 ! D26   D(24,4,22,46)           1.5974         calculate D2E/DX2 analytically  !
 ! D27   D(1,4,24,25)           30.1961         calculate D2E/DX2 analytically  !
 ! D28   D(1,4,24,38)          -91.5736         calculate D2E/DX2 analytically  !
 ! D29   D(1,4,24,48)          147.9385         calculate D2E/DX2 analytically  !
 ! D30   D(22,4,24,25)        -147.9165         calculate D2E/DX2 analytically  !
 ! D31   D(22,4,24,38)          90.3139         calculate D2E/DX2 analytically  !
 ! D32   D(22,4,24,48)         -30.1741         calculate D2E/DX2 analytically  !
 ! D33   D(1,5,23,11)            6.7328         calculate D2E/DX2 analytically  !
 ! D34   D(1,5,23,47)         -174.2606         calculate D2E/DX2 analytically  !
 ! D35   D(25,5,23,11)        -174.8576         calculate D2E/DX2 analytically  !
 ! D36   D(25,5,23,47)           4.149          calculate D2E/DX2 analytically  !
 ! D37   D(1,5,25,24)           37.7726         calculate D2E/DX2 analytically  !
 ! D38   D(1,5,25,39)          163.0736         calculate D2E/DX2 analytically  !
 ! D39   D(1,5,25,49)          -75.6665         calculate D2E/DX2 analytically  !
 ! D40   D(23,5,25,24)        -140.8112         calculate D2E/DX2 analytically  !
 ! D41   D(23,5,25,39)         -15.5101         calculate D2E/DX2 analytically  !
 ! D42   D(23,5,25,49)         105.7498         calculate D2E/DX2 analytically  !
 ! D43   D(14,6,8,2)            -1.5106         calculate D2E/DX2 analytically  !
 ! D44   D(14,6,8,10)          179.5916         calculate D2E/DX2 analytically  !
 ! D45   D(16,6,8,2)           178.076          calculate D2E/DX2 analytically  !
 ! D46   D(16,6,8,10)           -0.8218         calculate D2E/DX2 analytically  !
 ! D47   D(8,6,14,26)           65.13           calculate D2E/DX2 analytically  !
 ! D48   D(8,6,14,27)          -56.0501         calculate D2E/DX2 analytically  !
 ! D49   D(8,6,14,28)         -175.8289         calculate D2E/DX2 analytically  !
 ! D50   D(16,6,14,26)        -114.4443         calculate D2E/DX2 analytically  !
 ! D51   D(16,6,14,27)         124.3756         calculate D2E/DX2 analytically  !
 ! D52   D(16,6,14,28)           4.5969         calculate D2E/DX2 analytically  !
 ! D53   D(8,6,16,12)           -0.0239         calculate D2E/DX2 analytically  !
 ! D54   D(8,6,16,42)          179.7733         calculate D2E/DX2 analytically  !
 ! D55   D(14,6,16,12)         179.5586         calculate D2E/DX2 analytically  !
 ! D56   D(14,6,16,42)          -0.6442         calculate D2E/DX2 analytically  !
 ! D57   D(15,7,9,3)             4.3074         calculate D2E/DX2 analytically  !
 ! D58   D(15,7,9,11)         -174.6624         calculate D2E/DX2 analytically  !
 ! D59   D(17,7,9,3)          -176.6412         calculate D2E/DX2 analytically  !
 ! D60   D(17,7,9,11)            4.389          calculate D2E/DX2 analytically  !
 ! D61   D(9,7,15,29)           60.1494         calculate D2E/DX2 analytically  !
 ! D62   D(9,7,15,30)          179.2054         calculate D2E/DX2 analytically  !
 ! D63   D(9,7,15,31)          -60.8563         calculate D2E/DX2 analytically  !
 ! D64   D(17,7,15,29)        -118.8762         calculate D2E/DX2 analytically  !
 ! D65   D(17,7,15,30)           0.1797         calculate D2E/DX2 analytically  !
 ! D66   D(17,7,15,31)         120.1181         calculate D2E/DX2 analytically  !
 ! D67   D(9,7,17,13)           -2.1492         calculate D2E/DX2 analytically  !
 ! D68   D(9,7,17,43)          178.5209         calculate D2E/DX2 analytically  !
 ! D69   D(15,7,17,13)         176.8898         calculate D2E/DX2 analytically  !
 ! D70   D(15,7,17,43)          -2.4401         calculate D2E/DX2 analytically  !
 ! D71   D(2,8,10,18)         -177.567          calculate D2E/DX2 analytically  !
 ! D72   D(2,8,10,22)            1.7625         calculate D2E/DX2 analytically  !
 ! D73   D(6,8,10,18)            1.2901         calculate D2E/DX2 analytically  !
 ! D74   D(6,8,10,22)         -179.3804         calculate D2E/DX2 analytically  !
 ! D75   D(3,9,11,19)          177.7166         calculate D2E/DX2 analytically  !
 ! D76   D(3,9,11,23)           -5.2854         calculate D2E/DX2 analytically  !
 ! D77   D(7,9,11,19)           -3.3548         calculate D2E/DX2 analytically  !
 ! D78   D(7,9,11,23)          173.6432         calculate D2E/DX2 analytically  !
 ! D79   D(8,10,18,12)          -0.9246         calculate D2E/DX2 analytically  !
 ! D80   D(8,10,18,44)         179.3152         calculate D2E/DX2 analytically  !
 ! D81   D(22,10,18,12)        179.7106         calculate D2E/DX2 analytically  !
 ! D82   D(22,10,18,44)         -0.0496         calculate D2E/DX2 analytically  !
 ! D83   D(8,10,22,4)            6.1676         calculate D2E/DX2 analytically  !
 ! D84   D(8,10,22,46)        -174.6959         calculate D2E/DX2 analytically  !
 ! D85   D(18,10,22,4)        -174.4782         calculate D2E/DX2 analytically  !
 ! D86   D(18,10,22,46)          4.6583         calculate D2E/DX2 analytically  !
 ! D87   D(9,11,19,13)          -0.1508         calculate D2E/DX2 analytically  !
 ! D88   D(9,11,19,45)        -179.9197         calculate D2E/DX2 analytically  !
 ! D89   D(23,11,19,13)       -177.32           calculate D2E/DX2 analytically  !
 ! D90   D(23,11,19,45)          2.9111         calculate D2E/DX2 analytically  !
 ! D91   D(9,11,23,5)            9.9265         calculate D2E/DX2 analytically  !
 ! D92   D(9,11,23,47)        -169.1094         calculate D2E/DX2 analytically  !
 ! D93   D(19,11,23,5)        -172.9694         calculate D2E/DX2 analytically  !
 ! D94   D(19,11,23,47)          7.9946         calculate D2E/DX2 analytically  !
 ! D95   D(18,12,16,6)           0.4243         calculate D2E/DX2 analytically  !
 ! D96   D(18,12,16,42)       -179.3745         calculate D2E/DX2 analytically  !
 ! D97   D(20,12,16,6)        -179.6692         calculate D2E/DX2 analytically  !
 ! D98   D(20,12,16,42)          0.5319         calculate D2E/DX2 analytically  !
 ! D99   D(16,12,18,10)          0.0567         calculate D2E/DX2 analytically  !
 ! D100  D(16,12,18,44)        179.808          calculate D2E/DX2 analytically  !
 ! D101  D(20,12,18,10)       -179.8453         calculate D2E/DX2 analytically  !
 ! D102  D(20,12,18,44)         -0.094          calculate D2E/DX2 analytically  !
 ! D103  D(16,12,20,32)       -179.7319         calculate D2E/DX2 analytically  !
 ! D104  D(16,12,20,33)        -59.3973         calculate D2E/DX2 analytically  !
 ! D105  D(16,12,20,34)         60.0093         calculate D2E/DX2 analytically  !
 ! D106  D(18,12,20,32)          0.1675         calculate D2E/DX2 analytically  !
 ! D107  D(18,12,20,33)        120.502          calculate D2E/DX2 analytically  !
 ! D108  D(18,12,20,34)       -120.0913         calculate D2E/DX2 analytically  !
 ! D109  D(19,13,17,7)          -1.3477         calculate D2E/DX2 analytically  !
 ! D110  D(19,13,17,43)        177.982          calculate D2E/DX2 analytically  !
 ! D111  D(21,13,17,7)         179.3918         calculate D2E/DX2 analytically  !
 ! D112  D(21,13,17,43)         -1.2785         calculate D2E/DX2 analytically  !
 ! D113  D(17,13,19,11)          2.5001         calculate D2E/DX2 analytically  !
 ! D114  D(17,13,19,45)       -177.7375         calculate D2E/DX2 analytically  !
 ! D115  D(21,13,19,11)       -178.2186         calculate D2E/DX2 analytically  !
 ! D116  D(21,13,19,45)          1.5438         calculate D2E/DX2 analytically  !
 ! D117  D(17,13,21,35)       -119.5954         calculate D2E/DX2 analytically  !
 ! D118  D(17,13,21,36)        121.1283         calculate D2E/DX2 analytically  !
 ! D119  D(17,13,21,37)          0.6818         calculate D2E/DX2 analytically  !
 ! D120  D(19,13,21,35)         61.1729         calculate D2E/DX2 analytically  !
 ! D121  D(19,13,21,36)        -58.1034         calculate D2E/DX2 analytically  !
 ! D122  D(19,13,21,37)       -178.5499         calculate D2E/DX2 analytically  !
 ! D123  D(6,14,26,50)        -179.7193         calculate D2E/DX2 analytically  !
 ! D124  D(6,14,26,51)         -59.6035         calculate D2E/DX2 analytically  !
 ! D125  D(6,14,26,52)          61.0086         calculate D2E/DX2 analytically  !
 ! D126  D(27,14,26,50)        -57.9184         calculate D2E/DX2 analytically  !
 ! D127  D(27,14,26,51)         62.1974         calculate D2E/DX2 analytically  !
 ! D128  D(27,14,26,52)       -177.1905         calculate D2E/DX2 analytically  !
 ! D129  D(28,14,26,50)         58.3745         calculate D2E/DX2 analytically  !
 ! D130  D(28,14,26,51)        178.4903         calculate D2E/DX2 analytically  !
 ! D131  D(28,14,26,52)        -60.8976         calculate D2E/DX2 analytically  !
 ! D132  D(6,14,27,53)         -59.7691         calculate D2E/DX2 analytically  !
 ! D133  D(6,14,27,54)          61.1916         calculate D2E/DX2 analytically  !
 ! D134  D(6,14,27,55)        -178.2905         calculate D2E/DX2 analytically  !
 ! D135  D(26,14,27,53)        179.1074         calculate D2E/DX2 analytically  !
 ! D136  D(26,14,27,54)        -59.9319         calculate D2E/DX2 analytically  !
 ! D137  D(26,14,27,55)         60.586          calculate D2E/DX2 analytically  !
 ! D138  D(28,14,27,53)         62.8043         calculate D2E/DX2 analytically  !
 ! D139  D(28,14,27,54)       -176.235          calculate D2E/DX2 analytically  !
 ! D140  D(28,14,27,55)        -55.717          calculate D2E/DX2 analytically  !
 ! D141  D(6,14,28,56)         179.0057         calculate D2E/DX2 analytically  !
 ! D142  D(6,14,28,57)         -62.0187         calculate D2E/DX2 analytically  !
 ! D143  D(6,14,28,58)          59.9509         calculate D2E/DX2 analytically  !
 ! D144  D(26,14,28,56)        -60.6176         calculate D2E/DX2 analytically  !
 ! D145  D(26,14,28,57)         58.3581         calculate D2E/DX2 analytically  !
 ! D146  D(26,14,28,58)       -179.6724         calculate D2E/DX2 analytically  !
 ! D147  D(27,14,28,56)         57.2427         calculate D2E/DX2 analytically  !
 ! D148  D(27,14,28,57)        176.2183         calculate D2E/DX2 analytically  !
 ! D149  D(27,14,28,58)        -61.8121         calculate D2E/DX2 analytically  !
 ! D150  D(7,15,29,59)        -179.8888         calculate D2E/DX2 analytically  !
 ! D151  D(7,15,29,60)         -59.6058         calculate D2E/DX2 analytically  !
 ! D152  D(7,15,29,61)          61.2124         calculate D2E/DX2 analytically  !
 ! D153  D(30,15,29,59)         58.1148         calculate D2E/DX2 analytically  !
 ! D154  D(30,15,29,60)        178.3978         calculate D2E/DX2 analytically  !
 ! D155  D(30,15,29,61)        -60.784          calculate D2E/DX2 analytically  !
 ! D156  D(31,15,29,59)        -58.0341         calculate D2E/DX2 analytically  !
 ! D157  D(31,15,29,60)         62.2488         calculate D2E/DX2 analytically  !
 ! D158  D(31,15,29,61)       -176.9329         calculate D2E/DX2 analytically  !
 ! D159  D(7,15,30,62)        -179.3241         calculate D2E/DX2 analytically  !
 ! D160  D(7,15,30,63)         -60.2547         calculate D2E/DX2 analytically  !
 ! D161  D(7,15,30,64)          61.6958         calculate D2E/DX2 analytically  !
 ! D162  D(29,15,30,62)        -58.941          calculate D2E/DX2 analytically  !
 ! D163  D(29,15,30,63)         60.1284         calculate D2E/DX2 analytically  !
 ! D164  D(29,15,30,64)       -177.9212         calculate D2E/DX2 analytically  !
 ! D165  D(31,15,30,62)         58.6535         calculate D2E/DX2 analytically  !
 ! D166  D(31,15,30,63)        177.7229         calculate D2E/DX2 analytically  !
 ! D167  D(31,15,30,64)        -60.3266         calculate D2E/DX2 analytically  !
 ! D168  D(7,15,31,65)         -61.56           calculate D2E/DX2 analytically  !
 ! D169  D(7,15,31,66)          59.5981         calculate D2E/DX2 analytically  !
 ! D170  D(7,15,31,67)         179.9283         calculate D2E/DX2 analytically  !
 ! D171  D(29,15,31,65)        177.3861         calculate D2E/DX2 analytically  !
 ! D172  D(29,15,31,66)        -61.4557         calculate D2E/DX2 analytically  !
 ! D173  D(29,15,31,67)         58.8744         calculate D2E/DX2 analytically  !
 ! D174  D(30,15,31,65)         61.2293         calculate D2E/DX2 analytically  !
 ! D175  D(30,15,31,66)       -177.6125         calculate D2E/DX2 analytically  !
 ! D176  D(30,15,31,67)        -57.2824         calculate D2E/DX2 analytically  !
 ! D177  D(12,20,32,68)       -179.9039         calculate D2E/DX2 analytically  !
 ! D178  D(12,20,32,69)        -60.5673         calculate D2E/DX2 analytically  !
 ! D179  D(12,20,32,70)         60.7428         calculate D2E/DX2 analytically  !
 ! D180  D(33,20,32,68)         59.0555         calculate D2E/DX2 analytically  !
 ! D181  D(33,20,32,69)        178.3921         calculate D2E/DX2 analytically  !
 ! D182  D(33,20,32,70)        -60.2978         calculate D2E/DX2 analytically  !
 ! D183  D(34,20,32,68)        -58.9814         calculate D2E/DX2 analytically  !
 ! D184  D(34,20,32,69)         60.3552         calculate D2E/DX2 analytically  !
 ! D185  D(34,20,32,70)       -178.3347         calculate D2E/DX2 analytically  !
 ! D186  D(12,20,33,71)        179.55           calculate D2E/DX2 analytically  !
 ! D187  D(12,20,33,72)        -60.7043         calculate D2E/DX2 analytically  !
 ! D188  D(12,20,33,73)         59.8052         calculate D2E/DX2 analytically  !
 ! D189  D(32,20,33,71)        -58.0002         calculate D2E/DX2 analytically  !
 ! D190  D(32,20,33,72)         61.7455         calculate D2E/DX2 analytically  !
 ! D191  D(32,20,33,73)       -177.745          calculate D2E/DX2 analytically  !
 ! D192  D(34,20,33,71)         59.7345         calculate D2E/DX2 analytically  !
 ! D193  D(34,20,33,72)        179.4802         calculate D2E/DX2 analytically  !
 ! D194  D(34,20,33,73)        -60.0103         calculate D2E/DX2 analytically  !
 ! D195  D(12,20,34,74)        -59.6578         calculate D2E/DX2 analytically  !
 ! D196  D(12,20,34,75)         60.8264         calculate D2E/DX2 analytically  !
 ! D197  D(12,20,34,76)       -179.4399         calculate D2E/DX2 analytically  !
 ! D198  D(32,20,34,74)        177.955          calculate D2E/DX2 analytically  !
 ! D199  D(32,20,34,75)        -61.5608         calculate D2E/DX2 analytically  !
 ! D200  D(32,20,34,76)         58.1729         calculate D2E/DX2 analytically  !
 ! D201  D(33,20,34,74)         60.2118         calculate D2E/DX2 analytically  !
 ! D202  D(33,20,34,75)       -179.3039         calculate D2E/DX2 analytically  !
 ! D203  D(33,20,34,76)        -59.5702         calculate D2E/DX2 analytically  !
 ! D204  D(13,21,35,77)       -178.967          calculate D2E/DX2 analytically  !
 ! D205  D(13,21,35,78)        -59.1174         calculate D2E/DX2 analytically  !
 ! D206  D(13,21,35,79)         61.2551         calculate D2E/DX2 analytically  !
 ! D207  D(36,21,35,77)        -59.1543         calculate D2E/DX2 analytically  !
 ! D208  D(36,21,35,78)         60.6953         calculate D2E/DX2 analytically  !
 ! D209  D(36,21,35,79)       -178.9322         calculate D2E/DX2 analytically  !
 ! D210  D(37,21,35,77)         58.3512         calculate D2E/DX2 analytically  !
 ! D211  D(37,21,35,78)        178.2008         calculate D2E/DX2 analytically  !
 ! D212  D(37,21,35,79)        -61.4268         calculate D2E/DX2 analytically  !
 ! D213  D(13,21,36,80)        -60.7098         calculate D2E/DX2 analytically  !
 ! D214  D(13,21,36,81)         59.7484         calculate D2E/DX2 analytically  !
 ! D215  D(13,21,36,82)        179.5187         calculate D2E/DX2 analytically  !
 ! D216  D(35,21,36,80)        179.6504         calculate D2E/DX2 analytically  !
 ! D217  D(35,21,36,81)        -59.8914         calculate D2E/DX2 analytically  !
 ! D218  D(35,21,36,82)         59.8789         calculate D2E/DX2 analytically  !
 ! D219  D(37,21,36,80)         62.1346         calculate D2E/DX2 analytically  !
 ! D220  D(37,21,36,81)       -177.4072         calculate D2E/DX2 analytically  !
 ! D221  D(37,21,36,82)        -57.6369         calculate D2E/DX2 analytically  !
 ! D222  D(13,21,37,83)       -179.9132         calculate D2E/DX2 analytically  !
 ! D223  D(13,21,37,84)        -60.655          calculate D2E/DX2 analytically  !
 ! D224  D(13,21,37,85)         60.8075         calculate D2E/DX2 analytically  !
 ! D225  D(35,21,37,83)        -59.0016         calculate D2E/DX2 analytically  !
 ! D226  D(35,21,37,84)         60.2566         calculate D2E/DX2 analytically  !
 ! D227  D(35,21,37,85)       -178.2809         calculate D2E/DX2 analytically  !
 ! D228  D(36,21,37,83)         58.8379         calculate D2E/DX2 analytically  !
 ! D229  D(36,21,37,84)        178.0961         calculate D2E/DX2 analytically  !
 ! D230  D(36,21,37,85)        -60.4414         calculate D2E/DX2 analytically  !
 ! D231  D(4,24,25,5)          -42.1794         calculate D2E/DX2 analytically  !
 ! D232  D(4,24,25,39)        -170.5155         calculate D2E/DX2 analytically  !
 ! D233  D(4,24,25,49)          69.689          calculate D2E/DX2 analytically  !
 ! D234  D(38,24,25,5)          78.4336         calculate D2E/DX2 analytically  !
 ! D235  D(38,24,25,39)        -49.9025         calculate D2E/DX2 analytically  !
 ! D236  D(38,24,25,49)       -169.6979         calculate D2E/DX2 analytically  !
 ! D237  D(48,24,25,5)        -160.3539         calculate D2E/DX2 analytically  !
 ! D238  D(48,24,25,39)         71.31           calculate D2E/DX2 analytically  !
 ! D239  D(48,24,25,49)        -48.4855         calculate D2E/DX2 analytically  !
 ! D240  D(4,24,38,40)         172.4561         calculate D2E/DX2 analytically  !
 ! D241  D(4,24,38,86)          51.3089         calculate D2E/DX2 analytically  !
 ! D242  D(4,24,38,87)         -64.4318         calculate D2E/DX2 analytically  !
 ! D243  D(25,24,38,40)         54.0021         calculate D2E/DX2 analytically  !
 ! D244  D(25,24,38,86)        -67.1451         calculate D2E/DX2 analytically  !
 ! D245  D(25,24,38,87)        177.1141         calculate D2E/DX2 analytically  !
 ! D246  D(48,24,38,40)        -66.9417         calculate D2E/DX2 analytically  !
 ! D247  D(48,24,38,86)        171.9111         calculate D2E/DX2 analytically  !
 ! D248  D(48,24,38,87)         56.1704         calculate D2E/DX2 analytically  !
 ! D249  D(5,25,39,41)         -71.3847         calculate D2E/DX2 analytically  !
 ! D250  D(5,25,39,88)         168.8155         calculate D2E/DX2 analytically  !
 ! D251  D(5,25,39,89)          54.7009         calculate D2E/DX2 analytically  !
 ! D252  D(24,25,39,41)         50.801          calculate D2E/DX2 analytically  !
 ! D253  D(24,25,39,88)        -68.9988         calculate D2E/DX2 analytically  !
 ! D254  D(24,25,39,89)        176.8866         calculate D2E/DX2 analytically  !
 ! D255  D(49,25,39,41)        169.5197         calculate D2E/DX2 analytically  !
 ! D256  D(49,25,39,88)         49.7199         calculate D2E/DX2 analytically  !
 ! D257  D(49,25,39,89)        -64.3947         calculate D2E/DX2 analytically  !
 ! D258  D(14,26,99,95)         16.877          calculate D2E/DX2 analytically  !
 ! D259  D(14,26,99,96)       -161.6681         calculate D2E/DX2 analytically  !
 ! D260  D(50,26,99,95)        142.9939         calculate D2E/DX2 analytically  !
 ! D261  D(50,26,99,96)        -35.5512         calculate D2E/DX2 analytically  !
 ! D262  D(52,26,99,95)       -102.9136         calculate D2E/DX2 analytically  !
 ! D263  D(52,26,99,96)         78.5414         calculate D2E/DX2 analytically  !
 ! D264  D(24,38,40,41)        -57.8352         calculate D2E/DX2 analytically  !
 ! D265  D(24,38,40,90)        179.7368         calculate D2E/DX2 analytically  !
 ! D266  D(24,38,40,91)         62.9329         calculate D2E/DX2 analytically  !
 ! D267  D(86,38,40,41)         62.3633         calculate D2E/DX2 analytically  !
 ! D268  D(86,38,40,90)        -60.0647         calculate D2E/DX2 analytically  !
 ! D269  D(86,38,40,91)       -176.8686         calculate D2E/DX2 analytically  !
 ! D270  D(87,38,40,41)       -179.326          calculate D2E/DX2 analytically  !
 ! D271  D(87,38,40,90)         58.2461         calculate D2E/DX2 analytically  !
 ! D272  D(87,38,40,91)        -58.5579         calculate D2E/DX2 analytically  !
 ! D273  D(25,39,41,40)        -54.6688         calculate D2E/DX2 analytically  !
 ! D274  D(25,39,41,92)       -177.1449         calculate D2E/DX2 analytically  !
 ! D275  D(25,39,41,93)         66.0889         calculate D2E/DX2 analytically  !
 ! D276  D(88,39,41,40)         63.7241         calculate D2E/DX2 analytically  !
 ! D277  D(88,39,41,92)        -58.752          calculate D2E/DX2 analytically  !
 ! D278  D(88,39,41,93)       -175.5182         calculate D2E/DX2 analytically  !
 ! D279  D(89,39,41,40)       -179.9818         calculate D2E/DX2 analytically  !
 ! D280  D(89,39,41,92)         57.5421         calculate D2E/DX2 analytically  !
 ! D281  D(89,39,41,93)        -59.224          calculate D2E/DX2 analytically  !
 ! D282  D(38,40,41,39)         57.4672         calculate D2E/DX2 analytically  !
 ! D283  D(38,40,41,92)        179.2286         calculate D2E/DX2 analytically  !
 ! D284  D(38,40,41,93)        -63.9404         calculate D2E/DX2 analytically  !
 ! D285  D(90,40,41,39)        179.4159         calculate D2E/DX2 analytically  !
 ! D286  D(90,40,41,92)        -58.8228         calculate D2E/DX2 analytically  !
 ! D287  D(90,40,41,93)         58.0083         calculate D2E/DX2 analytically  !
 ! D288  D(91,40,41,39)        -63.5548         calculate D2E/DX2 analytically  !
 ! D289  D(91,40,41,92)         58.2066         calculate D2E/DX2 analytically  !
 ! D290  D(91,40,41,93)        175.0377         calculate D2E/DX2 analytically  !
 ! D291  D(98,96,97,100)        58.1429         calculate D2E/DX2 analytically  !
 ! D292  D(98,96,97,101)       -61.3386         calculate D2E/DX2 analytically  !
 ! D293  D(98,96,97,102)       178.2505         calculate D2E/DX2 analytically  !
 ! D294  D(99,96,97,100)      -123.7408         calculate D2E/DX2 analytically  !
 ! D295  D(99,96,97,101)       116.7776         calculate D2E/DX2 analytically  !
 ! D296  D(99,96,97,102)        -3.6333         calculate D2E/DX2 analytically  !
 ! D297  D(97,96,98,103)       -57.6662         calculate D2E/DX2 analytically  !
 ! D298  D(97,96,98,104)      -177.9263         calculate D2E/DX2 analytically  !
 ! D299  D(97,96,98,105)        62.0324         calculate D2E/DX2 analytically  !
 ! D300  D(99,96,98,103)       124.2139         calculate D2E/DX2 analytically  !
 ! D301  D(99,96,98,104)         3.9538         calculate D2E/DX2 analytically  !
 ! D302  D(99,96,98,105)      -116.0875         calculate D2E/DX2 analytically  !
 ! D303  D(97,96,99,95)         -2.9608         calculate D2E/DX2 analytically  !
 ! D304  D(97,96,99,106)       176.6352         calculate D2E/DX2 analytically  !
 ! D305  D(98,96,99,95)        175.0783         calculate D2E/DX2 analytically  !
 ! D306  D(98,96,99,106)        -5.3258         calculate D2E/DX2 analytically  !
 --------------------------------------------------------------------------------
 Trust Radius=3.00D-01 FncErr=5.00D-06 GrdErr=5.00D-06 EigMax=2.50D+02 EigMin=1.00D-04
 Number of steps in this run=    636 maximum allowed number of steps=    636.
 GradGradGradGradGradGradGradGradGradGradGradGradGradGradGradGradGradGrad

 Symmetry turned off by external request.
 Stoichiometry    C39H60CoN3O3
 Framework group  C1[X(C39H60CoN3O3)]
 Deg. of freedom   312
 Full point group                 C1      NOp   1
                          Input orientation:                          
 ---------------------------------------------------------------------
 Center     Atomic      Atomic             Coordinates (Angstroms)
 Number     Number       Type             X           Y           Z
 ---------------------------------------------------------------------
      1         27           0        0.068486    0.364717   -1.496075
      2          8           0        1.191447   -1.120415   -1.965900
      3          8           0       -1.202041   -0.932295   -0.856282
      4          7           0        1.304443    1.640926   -2.122919
      5          7           0       -1.051929    1.841174   -1.131166
      6          6           0        3.228513   -2.306741   -2.159365
      7          6           0       -3.350681   -1.870988   -0.580706
      8          6           0        2.472956   -1.081884   -2.165056
      9          6           0       -2.483054   -0.745563   -0.788800
     10          6           0        3.185503    0.134365   -2.418525
     11          6           0       -3.093508    0.548867   -0.889853
     12          6           0        5.301661   -1.052242   -2.684285
     13          6           0       -5.339950   -0.403254   -0.731384
     14          6           0        2.532431   -3.645501   -1.885692
     15          6           0       -2.756683   -3.264839   -0.341614
     16          6           0        4.588668   -2.242146   -2.414683
     17          6           0       -4.725257   -1.661934   -0.581695
     18          6           0        4.574125    0.118007   -2.679873
     19          6           0       -4.494571    0.683333   -0.857063
     20          6           0        6.803168   -1.119751   -2.957687
     21          6           0       -6.858403   -0.210531   -0.741308
     22          6           0        2.538622    1.411392   -2.434976
     23          6           0       -2.329034    1.762188   -0.964199
     24          6           0        0.759179    3.001098   -2.197736
     25          6           0       -0.299825    3.108934   -1.091662
     26          6           0        1.540624   -3.951790   -3.017791
     27          6           0        1.788361   -3.607399   -0.540647
     28          6           0        3.526253   -4.807311   -1.823610
     29          6           0       -1.878852   -3.241216    0.919931
     30          6           0       -3.839467   -4.323353   -0.122956
     31          6           0       -1.913912   -3.715273   -1.544331
     32          6           0        7.397696    0.262234   -3.220293
     33          6           0        7.520291   -1.734033   -1.747998
     34          6           0        7.061865   -2.000125   -4.187899
     35          6           0       -7.285652    0.403306   -2.081390
     36          6           0       -7.265890    0.741188    0.391086
     37          6           0       -7.610835   -1.527314   -0.555024
     38          6           0        0.168587    3.258213   -3.584369
     39          6           0       -1.109295    4.393978   -1.204045
     40          6           0       -0.568348    4.588638   -3.640846
     41          6           0       -1.677764    4.628394   -2.598585
     42          1           0        5.154755   -3.168122   -2.405574
     43          1           0       -5.366636   -2.524308   -0.447900
     44          1           0        5.053124    1.073701   -2.875540
     45          1           0       -4.903045    1.689668   -0.939127
     46          1           0        3.157171    2.266836   -2.726871
     47          1           0       -2.902715    2.685452   -0.851391
     48          1           0        1.557030    3.729416   -1.999906
     49          1           0        0.229099    3.098358   -0.129182
     50          1           0        1.030641   -4.904241   -2.834260
     51          1           0        0.782222   -3.173190   -3.102816
     52          1           0        2.058479   -4.032690   -3.979627
     53          1           0        2.482952   -3.405508    0.282435
     54          1           0        1.011668   -2.842267   -0.530924
     55          1           0        1.322002   -4.579578   -0.344904
     56          1           0        2.985158   -5.734053   -1.609432
     57          1           0        4.058512   -4.953071   -2.768790
     58          1           0        4.271990   -4.672785   -1.033387
     59          1           0       -1.447233   -4.232330    1.099542
     60          1           0       -1.061909   -2.524976    0.826558
     61          1           0       -2.471329   -2.974932    1.801995
     62          1           0       -3.365411   -5.293690    0.054415
     63          1           0       -4.468210   -4.103331    0.745715
     64          1           0       -4.493939   -4.434498   -0.993533
     65          1           0       -2.532133   -3.783477   -2.445490
     66          1           0       -1.090249   -3.026978   -1.736679
     67          1           0       -1.496203   -4.711343   -1.357023
     68          1           0        8.471268    0.175299   -3.413303
     69          1           0        6.945228    0.743605   -4.092999
     70          1           0        7.270997    0.931789   -2.363773
     71          1           0        8.598397   -1.797299   -1.930587
     72          1           0        7.368176   -1.129325   -0.848100
     73          1           0        7.163198   -2.745783   -1.534216
     74          1           0        6.688538   -3.018494   -4.044896
     75          1           0        6.575904   -1.588777   -5.078595
     76          1           0        8.135431   -2.068703   -4.394062
     77          1           0       -8.368550    0.567871   -2.105121
     78          1           0       -6.800507    1.368574   -2.255533
     79          1           0       -7.029769   -0.254613   -2.918317
     80          1           0       -6.984122    0.337170    1.368852
     81          1           0       -6.792464    1.721738    0.286401
     82          1           0       -8.350127    0.897360    0.393477
     83          1           0       -8.689387   -1.342865   -0.570086
     84          1           0       -7.390031   -2.243534   -1.352754
     85          1           0       -7.373449   -2.005009    0.400775
     86          1           0       -0.519501    2.439423   -3.822890
     87          1           0        0.978354    3.218645   -4.321056
     88          1           0       -0.426715    5.215471   -0.954525
     89          1           0       -1.890933    4.418197   -0.438519
     90          1           0       -0.975023    4.746427   -4.644750
     91          1           0        0.135174    5.412352   -3.456474
     92          1           0       -2.202857    5.588353   -2.625044
     93          1           0       -2.425256    3.860101   -2.838447
     94          1           0        0.672924    0.474714   -0.175245
     95          8           0       -1.006213    0.208692   -3.380692
     96          7           0       -2.290133   -1.312444   -4.488842
     97          6           0       -3.375836   -0.389035   -4.750385
     98          6           0       -2.408673   -2.646146   -5.039727
     99          6           0       -1.207164   -0.939209   -3.801550
    100          1           0       -4.313194   -0.805673   -4.369435
    101          1           0       -3.484366   -0.219548   -5.825945
    102          1           0       -3.170863    0.558808   -4.254821
    103          1           0       -3.323640   -3.125479   -4.678973
    104          1           0       -1.548278   -3.246083   -4.739929
    105          1           0       -2.449047   -2.605065   -6.132806
    106          1           0       -0.486808   -1.750596   -3.624273
 ---------------------------------------------------------------------
 Rotational constants (GHZ):           0.1079531           0.0451485           0.0364960
 General basis read from cards:  (5D, 7F)
 ======================================================================================================
                                       Pseudopotential Parameters
 ======================================================================================================
  Center     Atomic      Valence      Angular      Power
  Number     Number     Electrons     Momentum     of R      Exponent        Coefficient   SO-Coeffient
 ======================================================================================================
    1         27           17
                                      F and up 
                                                     2        1.0000000        0.00000000    0.00000000
                                      S - F
                                                     2       23.6600000      283.96056600    0.00000000
                                                     2       10.6100000       47.15684600    0.00000000
                                      P - F
                                                     2       25.0400000      182.21223600    0.00000000
                                                     2       10.4400000       35.23335200    0.00000000
                                      D - F
                                                     2       29.5400000      -26.47533300    0.00000000
                                                     2       10.1800000       -1.82578700    0.00000000
    2          8
                                   No pseudopotential on this center.
    3          8
                                   No pseudopotential on this center.
    4          7
                                   No pseudopotential on this center.
    5          7
                                   No pseudopotential on this center.
    6          6
                                   No pseudopotential on this center.
    7          6
                                   No pseudopotential on this center.
    8          6
                                   No pseudopotential on this center.
    9          6
                                   No pseudopotential on this center.
   10          6
                                   No pseudopotential on this center.
   11          6
                                   No pseudopotential on this center.
   12          6
                                   No pseudopotential on this center.
   13          6
                                   No pseudopotential on this center.
   14          6
                                   No pseudopotential on this center.
   15          6
                                   No pseudopotential on this center.
   16          6
                                   No pseudopotential on this center.
   17          6
                                   No pseudopotential on this center.
   18          6
                                   No pseudopotential on this center.
   19          6
                                   No pseudopotential on this center.
   20          6
                                   No pseudopotential on this center.
   21          6
                                   No pseudopotential on this center.
   22          6
                                   No pseudopotential on this center.
   23          6
                                   No pseudopotential on this center.
   24          6
                                   No pseudopotential on this center.
   25          6
                                   No pseudopotential on this center.
   26          6
                                   No pseudopotential on this center.
   27          6
                                   No pseudopotential on this center.
   28          6
                                   No pseudopotential on this center.
   29          6
                                   No pseudopotential on this center.
   30          6
                                   No pseudopotential on this center.
   31          6
                                   No pseudopotential on this center.
   32          6
                                   No pseudopotential on this center.
   33          6
                                   No pseudopotential on this center.
   34          6
                                   No pseudopotential on this center.
   35          6
                                   No pseudopotential on this center.
   36          6
                                   No pseudopotential on this center.
   37          6
                                   No pseudopotential on this center.
   38          6
                                   No pseudopotential on this center.
   39          6
                                   No pseudopotential on this center.
   40          6
                                   No pseudopotential on this center.
   41          6
                                   No pseudopotential on this center.
   42          1
                                   No pseudopotential on this center.
   43          1
                                   No pseudopotential on this center.
   44          1
                                   No pseudopotential on this center.
   45          1
                                   No pseudopotential on this center.
   46          1
                                   No pseudopotential on this center.
   47          1
                                   No pseudopotential on this center.
   48          1
                                   No pseudopotential on this center.
   49          1
                                   No pseudopotential on this center.
   50          1
                                   No pseudopotential on this center.
   51          1
                                   No pseudopotential on this center.
   52          1
                                   No pseudopotential on this center.
   53          1
                                   No pseudopotential on this center.
   54          1
                                   No pseudopotential on this center.
   55          1
                                   No pseudopotential on this center.
   56          1
                                   No pseudopotential on this center.
   57          1
                                   No pseudopotential on this center.
   58          1
                                   No pseudopotential on this center.
   59          1
                                   No pseudopotential on this center.
   60          1
                                   No pseudopotential on this center.
   61          1
                                   No pseudopotential on this center.
   62          1
                                   No pseudopotential on this center.
   63          1
                                   No pseudopotential on this center.
   64          1
                                   No pseudopotential on this center.
   65          1
                                   No pseudopotential on this center.
   66          1
                                   No pseudopotential on this center.
   67          1
                                   No pseudopotential on this center.
   68          1
                                   No pseudopotential on this center.
   69          1
                                   No pseudopotential on this center.
   70          1
                                   No pseudopotential on this center.
   71          1
                                   No pseudopotential on this center.
   72          1
                                   No pseudopotential on this center.
   73          1
                                   No pseudopotential on this center.
   74          1
                                   No pseudopotential on this center.
   75          1
                                   No pseudopotential on this center.
   76          1
                                   No pseudopotential on this center.
   77          1
                                   No pseudopotential on this center.
   78          1
                                   No pseudopotential on this center.
   79          1
[...]
 00003941,-0.00001157,-0.00000972,0.00000305,0.00000074,-0.00000962,0.0
 0000137,0.00000349,-0.00000070,-0.00000024,0.00000505,-0.00000327,0.00
 000439,0.00000522,-0.00002342,-0.00000322,0.00000304,-0.00000424,0.000
 00072,0.00000006,0.00000240,-0.00000272,-0.00006495,0.00000074,-0.0001
 5700,-0.00284135,-0.00371147,-0.00058098,-0.00700147,-0.00849266,-0.04
 031466,-0.00154078,0.00225278,-0.00128832,0.00233241,-0.04798662,0.024
 93478,0.00694603,0.00099167,-0.00043923,0.00013275,-0.00022602,0.00018
 098,0.00001740,0.00024479,0.00088072,-0.00022757,0.00007091,0.00009166
 ,0.00166536,-0.00008372,0.01231515,-0.00155312,-0.00028291,0.01588948,
 0.00213405,0.05702768,0.00038428,0.00006462,0.00051223,-0.00022868,0.0
 0006123,-0.00003243,0.00018408,-0.00000745,-0.00016264,-0.00003994,-0.
 00001096,0.00000226,0.00001650,-0.00002290,-0.00004504,-0.00003898,0.0
 0002611,0.00000788,0.00002741,0.00002746,-0.00000690,0.00021570,-0.000
 00990,-0.00004051,-0.00026538,0.00001579,0.00005741,-0.00004354,-0.000
 00838,0.00000905,0.00001951,-0.00003342,-0.00000409,-0.00001460,0.0000
 0328,0.00000374,0.00001669,0.00000602,0.00000814,-0.00000497,0.0000027
 5,0.00001511,-0.00008102,0.00001820,-0.00001471,0.00000553,0.00001309,
 -0.00000053,-0.00000392,0.00000868,0.00000100,0.00002031,0.00000065,-0
 .00000209,-0.00002521,0.00001031,-0.00000242,0.00000901,0.00000331,-0.
 00000119,-0.00001960,-0.00000286,0.00000181,0.00006872,-0.00005422,-0.
 00000204,-0.00005454,0.00000644,0.00002385,-0.00000604,0.00004173,0.00
 002429,0.00003823,0.00003925,0.00000934,0.00002112,-0.00003552,-0.0000
 3343,0.00000212,0.00000023,0.00000212,-0.00000085,-0.00000394,-0.00000
 775,0.00003814,-0.00000609,-0.00001419,-0.00000791,-0.00001267,-0.0000
 0651,0.00016342,0.00003278,0.00014993,-0.00000052,0.00000237,0.0000003
 8,-0.00000503,-0.00000141,0.00000514,-0.00000608,-0.00000206,-0.000004
 92,0.00000938,0.00000556,-0.00000435,0.00000786,0.00000492,0.00000485,
 0.00000454,-0.00000618,0.00000120,0.00005087,0.00000608,0.00001419,-0.
 00000979,0.00000034,-0.00000076,-0.00002839,-0.00000396,-0.00000524,0.
 00000082,-0.00000207,0.00000130,-0.00000524,0.00000125,-0.00000057,0.0
 0000295,0.00000319,0.00000221,-0.00000306,-0.00000410,0.00000140,0.000
 00491,-0.00000749,0.00000129,-0.00001291,-0.00000576,0.00000307,0.0000
 0929,-0.00000819,0.00000288,-0.00001194,-0.00001307,-0.00000626,-0.000
 00553,-0.00000580,-0.00000504,0.00000080,0.00001019,0.00000387,-0.0000
 1198,0.00001281,0.00000053,-0.00001221,0.00000448,0.00000646,-0.000004
 21,0.00000141,-0.00000273,-0.00000254,-0.00000738,0.00000812,0.0000011
 5,0.00000563,-0.00000353,0.00000066,0.00000171,-0.00000105,-0.00000246
 ,0.00000069,0.00000157,-0.00000514,0.00000378,-0.00000129,-0.00000162,
 0.00000696,-0.00000261,0.00000140,-0.00000460,0.00000888,-0.00000491,-
 0.00000170,-0.00002252,-0.00000088,0.00000594,-0.00000092,0.00001049,0
 .00000451,-0.00000757,0.00000006,0.00000084,0.00000274,-0.00013621,-0.
 00001580,-0.00024661,0.00002170,-0.00001623,0.00001251,-0.00000886,0.0
 0002018,-0.00005465,-0.00000422,-0.00000090,0.00000089,0.00000046,-0.0
 0000023,-0.00000132,0.00000057,0.00000018,0.00000078,-0.00000409,0.000
 00149,-0.00000208,0.00000089,-0.00000036,-0.00000018,0.00000101,-0.000
 00014,0.00000033,-0.00000002,-0.00000073,-0.00000051,0.00000007,-0.000
 00063,0.00000093,-0.00000343,0.00000226,0.00000387,0.00000543,-0.00000
 260,0.00000215,-0.00000127,0.00000009,0.,0.00000130,-0.00000375,-0.000
 00486,0.00000053,-0.00000046,0.00000043,-0.00000051,-0.00000081,0.0000
 0076,0.00000514,-0.00000336,-0.00000374,0.00000579,0.00000075,-0.00000
 029,-0.00000170,0.00000013,-0.00000029,-0.00000050,-0.00000006,0.00000
 029,-0.00001958,0.00006102,-0.00003287,-0.00001346,-0.00001024,0.00000
 390,-0.00000006,-0.00000871,0.00000215,0.00000271,-0.00000138,0.000000
 35,0.00000422,-0.00000251,0.00000320,0.00000484,-0.00001884,-0.0000027
 6,0.00000341,-0.00000524,0.00000017,-0.00000153,0.00000264,-0.00000211
 ,-0.00010024,-0.00000392,-0.00015609,-0.00142854,-0.00237859,-0.000804
 54,-0.00613369,-0.00907799,-0.01136453,-0.00085436,0.00064948,0.000727
 49,-0.00825461,0.01997034,-0.30713764,0.00512249,0.00160716,0.00084981
 ,0.00021078,0.00010192,-0.00015467,0.00060861,-0.00048728,-0.00010619,
 -0.00006429,-0.00009442,0.00016106,-0.00144336,0.00146777,-0.00965193,
 0.00157670,0.00015039,-0.00535138,0.01043450,-0.01217350,0.33290777,0.
 00000720,-0.00035598,-0.00082941,0.00164249,-0.00017311,0.00016724,-0.
 00003721,-0.00018471,-0.00030739,-0.00000196,0.00021085,0.00004687,-0.
 00011003,-0.00004224,-0.00003380,0.00036796,-0.00032860,-0.00005734,0.
 00001615,0.00000926,0.00000415,-0.00241932,0.00003270,0.00033687,-0.00
 016036,0.00005724,0.00006482,0.00023726,0.00042144,0.00000026,-0.00001
 304,-0.00005769,0.00002101,0.00012028,0.00019226,-0.00005356,0.0000113
 3,-0.00003990,0.00000392,0.00002278,0.00001817,-0.00006342,-0.00000288
 ,0.00005264,0.00005152,-0.00024090,-0.00010362,0.00005721,-0.00007424,
 0.00001890,-0.00001018,0.00007321,-0.00005167,-0.00005570,0.00002405,-
 0.00000546,-0.00002126,-0.00006227,-0.00000949,0.00001498,-0.00000033,
 -0.00000656,-0.00000120,0.00007611,-0.00024884,0.00003076,0.00002778,0
 .00016479,0.00002136,0.00001446,-0.00012011,-0.00002956,-0.00002034,0.
 00003176,-0.00004708,-0.00119892,0.00077554,-0.00033509,-0.00001090,-0
 .00001029,-0.00002715,-0.00000074,0.00006269,0.00006642,0.00001151,-0.
 00000464,0.00001194,0.00001429,-0.00001391,-0.00004193,-0.00017435,-0.
 00000578,-0.00014253,0.00001084,-0.00002105,-0.00000227,0.00002663,0.0
 0000710,-0.00002906,0.00003656,0.00001129,0.00001483,0.00000241,0.0000
 0132,-0.00000243,0.00000327,0.00000008,0.00000216,0.00000232,-0.000001
 94,0.00000063,-0.00007544,0.00002423,0.00000302,-0.00000070,-0.0000046
 1,0.00000961,0.00002687,0.00001233,-0.00001490,-0.00000172,0.00000175,
 -0.00000336,0.00001818,-0.00001611,-0.00000048,-0.00000035,0.00000158,
 0.00000347,0.00002154,0.00001518,-0.00000530,0.00000465,-0.00000563,-0
 .00000311,0.00000496,0.00001734,-0.00000080,-0.00002191,0.00000283,0.0
 0000602,-0.00000186,0.00001542,0.00000844,-0.00000943,-0.00002031,0.00
 000611,0.00019730,-0.00012275,0.00000381,-0.00044588,0.00110200,0.0000
 9819,0.00010870,-0.00013458,0.00002421,0.00001097,-0.00001036,0.000025
 29,0.00002851,0.00002504,-0.00004371,0.00000147,-0.00003127,0.00001915
 ,-0.00000656,-0.00001646,0.00000166,0.00000376,-0.00000035,-0.00000733
 ,0.00003225,-0.00002463,0.00000530,-0.00000032,0.00000256,-0.00000347,
 -0.00000162,0.00000063,0.00000089,0.00000010,-0.00000040,-0.00001135,-
 0.00000076,-0.00000045,-0.00000037,0.00001598,0.00000934,-0.00000876,-
 0.00000065,-0.00000016,0.00000450,-0.00002746,-0.00003511,0.00002367,0
 .00017872,-0.00015464,0.00030576,0.00007539,0.00007915,-0.00004308,0.0
 0001214,0.00000617,-0.00000269,-0.00000091,0.00000141,0.00000318,-0.00
 000103,0.00000172,-0.00000099,0.00001779,-0.00000821,0.00001160,-0.000
 00133,0.00000154,0.00000094,-0.00000258,-0.00000063,0.00000117,-0.0000
 0227,-0.00000111,0.00000040,-0.00000203,0.00000248,-0.00000104,0.00001
 315,-0.00001120,-0.00001465,0.00000048,0.00000065,0.00000119,0.0000002
 8,-0.00000020,-0.00000107,-0.00000135,0.00000017,0.00000216,0.00000007
 ,-0.00000002,-0.00000005,0.00000032,0.00000063,-0.00000022,0.00000099,
 -0.00000056,-0.00000150,0.00000033,0.00000107,-0.00000023,-0.00000107,
 0.00000092,-0.00000019,-0.00000017,-0.00000032,0.00000087,0.00004953,0
 .00000428,0.00001807,0.00000626,0.00000428,-0.00000569,-0.00000022,0.0
 0000373,0.00000033,-0.00000581,0.00000464,0.00000215,-0.00000432,0.000
 00636,-0.00000178,-0.00000527,0.00001420,0.00000051,-0.00000203,0.0000
 0400,0.00000061,0.00000198,0.00000294,0.00000128,0.00006952,0.00008126
 ,0.00015058,0.01493718,-0.00171236,-0.00093438,-0.02191747,0.01954515,
 -0.01002391,0.00168574,-0.00193361,-0.00490771,-0.00070320,0.00165981,
 0.00153376,-0.16333774,0.11249110,-0.02851142,-0.00000712,-0.00033932,
 -0.00011871,-0.00135102,0.00106094,-0.00004382,0.00030266,0.00001956,0
 .00010491,-0.00000354,-0.00012241,-0.00008275,0.00015309,-0.00089187,-
 0.00032625,0.00031301,-0.00015069,0.00009697,0.17143020,0.00081221,-0.
 00077563,0.00186159,0.00196053,0.00022014,0.00125988,-0.00022476,0.000
 17200,0.00015590,-0.00041028,0.00001535,-0.00002565,0.00017842,-0.0000
 1851,-0.00021494,0.00033918,-0.00022445,-0.00010986,-0.00010675,-0.000
 07721,0.00000657,-0.00153946,0.00013022,0.00041262,0.00034786,-0.00011
 890,0.00002593,0.00006140,0.00048733,-0.00011479,0.00006349,0.00015303
 ,-0.00004964,0.00005478,0.00020754,-0.00003352,0.00003668,0.00015607,-
 0.00001027,-0.00000121,0.00016858,0.00012029,-0.00002388,-0.00009071,0
 .00000888,-0.00025042,-0.00013324,0.00004567,0.00013741,-0.00007597,-0
 .00000238,0.00011173,-0.00005256,-0.00004871,-0.00017589,-0.00003078,-
 0.00001782,-0.00002396,-0.00000066,0.00000739,-0.00001168,0.00000860,0
 .00000346,0.00042923,-0.00038312,-0.00003439,-0.00042381,-0.00002788,0
 .00013845,0.00006281,-0.00000185,0.00006211,0.00004240,0.00008552,0.00
 002436,0.00086533,-0.00108052,0.00027083,-0.00001210,-0.00002872,0.000
 01914,-0.00003256,-0.00007054,-0.00006958,-0.00000010,0.00001146,-0.00
 001147,-0.00002613,0.00001738,0.00002719,0.00019000,-0.00022285,0.0002
 9708,0.00000229,-0.00000730,-0.00000011,0.00001055,0.00000188,-0.00000
 969,0.00001175,0.00000479,0.00000302,0.00000458,-0.00000169,-0.0000039
 9,0.00000259,0.00000055,0.00000122,0.00000292,-0.00000471,0.00000231,0
 .00006743,0.00008835,0.00010405,-0.00000846,0.00000527,0.00001222,-0.0
 0007397,-0.00001680,-0.00002723,0.00000616,0.00000802,0.00000776,0.000
 00826,-0.00000163,0.00000240,0.00000358,-0.00000205,-0.00000140,0.0000
 1408,0.00000369,-0.00000571,-0.00000194,-0.00000014,0.00000413,-0.0000
 0126,0.00000209,0.00001517,-0.00000153,-0.00000815,0.00001151,-0.00003
 298,0.00000793,-0.00002193,-0.00000733,-0.00000827,-0.00001051,-0.0001
 0584,-0.00001539,0.00002283,0.00087551,-0.00055390,0.00048764,-0.00013
 184,0.00013762,-0.00005392,0.00000441,-0.00000540,-0.00000525,-0.00000
 557,0.00001849,-0.00002207,0.00000693,-0.00000921,0.00000270,0.0000055
 5,-0.00000425,0.00000133,0.00000100,-0.00000293,0.00000249,-0.00001631
 ,0.00002164,0.00000286,0.00000168,0.00000365,-0.00000493,-0.00000253,-
 0.00000258,-0.00000774,-0.00000465,0.00000188,0.00000595,0.00000110,0.
 00000591,-0.00000123,-0.00002008,-0.00000614,0.00001069,-0.00000119,0.
 00000113,-0.00000131,0.00010702,0.00012845,-0.00010506,-0.00023815,-0.
 00033122,0.00045044,-0.00007311,-0.00008697,0.00007611,0.00000472,0.00
 000206,-0.00000090,-0.00000135,0.00000042,0.00000224,-0.00000071,0.000
 00100,-0.00000071,0.00000543,-0.00000459,0.00000426,0.00000056,0.00000
 200,0.00000125,-0.00000026,-0.00000192,0.00000038,-0.00000233,0.000000
 42,-0.00000218,-0.00000270,-0.00000096,0.00000145,0.00000662,-0.000005
 63,-0.00000454,0.00000222,-0.00000221,0.00000211,-0.00000142,0.0000013
 5,0.00000153,0.00000018,0.00000102,-0.00000040,-0.00000013,0.00000059,
 0.00000030,-0.00000036,-0.00000019,-0.00000015,0.00000245,-0.00000186,
 -0.00000140,0.00000204,0.00000198,-0.00000131,-0.00000097,0.00000116,0
 .00000028,-0.00000066,-0.00000017,-0.00000038,0.00003074,0.00025831,-0
 .00014064,-0.00006046,-0.00006102,0.00000122,-0.00000048,-0.00001118,-
 0.00000070,0.00000017,0.00000155,-0.00000292,0.00000680,-0.00000065,0.
 00000479,0.00001316,-0.00004632,-0.00000501,0.00000346,-0.00000828,-0.
 00000243,-0.00000305,0.00000436,-0.00000343,-0.00010236,-0.00004964,-0
 .00055300,0.01653048,-0.03839785,-0.00655388,-0.00459581,0.00491621,-0
 .00314394,-0.00142338,0.00074733,-0.00260527,-0.00319750,0.00099324,-0
 .00071982,0.12176847,-0.17274892,0.03377095,0.00001902,-0.00007539,-0.
 00002226,-0.00053825,0.00042280,0.00002418,-0.00019135,-0.00007229,-0.
 00010933,-0.00020028,0.00014937,-0.00008557,-0.00026266,0.00006454,-0.
 00009101,0.00010931,0.00006492,0.00009034,-0.13076053,0.20606273,0.001
 32233,-0.00069273,0.00038355,0.00226908,0.00008072,-0.00008774,-0.0005
 7404,0.00003816,0.00018780,-0.00011710,0.00018209,0.00011909,-0.000051
 70,0.00005879,-0.00002727,0.00040847,-0.00037144,-0.00006342,-0.000099
 69,-0.00007941,0.00004787,-0.00222668,0.00031798,0.00060892,0.00039935
 ,0.00001822,0.00000818,0.00028713,0.00047809,-0.00009898,-0.00011042,0
 .00012935,0.00009220,0.00011469,0.00022513,-0.00005372,-0.00005161,-0.
 00002469,0.00000821,0.00000987,0.00006772,-0.00002025,-0.00002237,0.00
 000694,-0.00004899,-0.00025586,-0.00013215,0.00004793,0.00001345,0.000
 00063,-0.00001058,0.00008864,-0.00003442,-0.00006224,0.00006467,0.0000
 0756,-0.00001255,-0.00006111,-0.00001110,0.00001603,0.00002831,0.00000
 950,-0.00000373,0.00021739,-0.00030950,0.00002390,-0.00005219,-0.00003
 295,0.00003648,0.00001902,-0.00013932,0.00000754,-0.00007239,-0.000033
 08,-0.00000585,-0.00053332,0.00039189,-0.00032382,-0.00002147,0.000016
 46,-0.00000478,-0.00000899,0.00003559,0.00004637,-0.00000688,0.0000017
 0,-0.00001560,0.00000264,0.00002051,0.00003398,0.00016556,0.00032733,-
 0.00020238,0.00001538,-0.00002237,0.00000144,0.00002825,0.00000751,-0.
 00002574,0.00003295,0.00001322,0.00001272,-0.00001507,-0.00000998,0.00
 000861,-0.00001463,-0.00000780,-0.00000870,-0.00000591,0.00001116,-0.0
 0000036,0.00008061,0.00008394,0.00005641,0.00002052,0.00000310,0.00001
 457,-0.00005953,-0.00002074,-0.00003495,-0.00000170,0.00000302,0.00001
 149,0.00002410,-0.00001463,0.00000294,-0.00000862,-0.00000534,0.000003
 14,0.00003263,0.00001540,-0.00000772,-0.00001045,0.00001668,0.00000286
 ,0.00001530,0.00002124,-0.00001056,-0.00002202,0.00000961,-0.00000257,
 -0.00001267,0.00002547,-0.00003394,0.00001692,0.00000766,-0.00000008,0
 .00008340,-0.00009870,-0.00001100,-0.00001308,0.00059146,0.00055580,0.
 00013104,-0.00012643,-0.00000259,0.00001980,-0.00001559,0.00001926,0.0
 0003112,0.00003532,-0.00008400,0.00000341,-0.00002459,0.00001436,-0.00
 000135,-0.00001401,0.00000322,0.00000857,-0.00000398,-0.00000863,0.000
 02537,-0.00001864,0.00000801,0.00000133,-0.00001223,0.00001285,-0.0000
 0655,0.00001114,-0.00001406,-0.00000198,-0.00000660,0.00001608,0.00000
 079,-0.00000880,0.00000165,-0.00001562,-0.00001078,0.00001096,-0.00000
 252,0.00000177,-0.00000453,-0.00012756,-0.00012167,0.00003903,0.000129
 48,0.00075785,-0.00066225,-0.00001794,-0.00002254,-0.00003542,0.000010
 28,0.00000634,-0.00000170,-0.00000207,0.00000287,-0.00000031,-0.000002
 35,0.00000082,-0.00000178,0.00001659,-0.00000927,0.00001148,-0.0000028
 1,0.00000265,0.00000285,-0.00000258,-0.00000003,-0.00000081,-0.0000032
 1,-0.00000101,0.00000219,-0.00000164,0.00000228,-0.00000115,0.00001150
 ,-0.00001196,-0.00001442,-0.00000621,0.00000408,-0.00000584,0.00000272
 ,0.00000074,-0.00000133,-0.00000797,0.00000400,0.00000681,0.00000048,0
 .00000007,0.00000187,-0.00000010,0.00000026,-0.00000097,-0.00000832,0.
 00000619,0.00000584,-0.00000680,-0.00000235,-0.00000125,0.00000073,-0.
 00000163,-0.00000102,0.00000065,-0.00000003,-0.00000057,-0.00003619,0.
 00004579,-0.00003097,-0.00002992,-0.00002347,-0.00000846,-0.00000205,0
 .00001220,-0.00000109,-0.00000700,0.00000241,-0.00000483,-0.00000259,0
 .00000968,0.,0.00001214,-0.00002610,-0.00000355,-0.00000061,0.00000090
 ,-0.00000493,0.00000362,-0.00000096,-0.00000058,-0.00019883,0.00006249
 ,-0.00012758,0.00331305,-0.01553750,0.01320126,-0.01584273,0.00962698,
 0.00206900,-0.00392803,-0.00361076,0.00492199,-0.00023077,0.00186852,-
 0.00176871,-0.02807413,0.03086070,-0.06119536,-0.00114860,0.00156189,-
 0.00041747,0.00083657,-0.00099643,-0.00008516,0.00008691,-0.00006843,0
 .00010791,0.00035225,-0.00008022,0.00019665,-0.00015851,-0.00055888,0.
 00001247,-0.00027066,0.00004660,-0.00005201,0.04381872,-0.02480318,0.0
 4271702\\-0.00000022,-0.00000103,-0.00000111,0.00000152,0.00000091,0.0
 0000054,-0.00000072,-0.00000145,-0.00000061,0.00000143,-0.00000014,0.0
 0000276,0.00000172,0.00000036,-0.00000064,-0.00000043,-0.00000059,-0.0
 0000153,-0.00000091,-0.00000005,0.00000030,-0.00000073,-0.00000016,-0.
 00000129,0.00000078,-0.00000064,0.00000037,0.00000069,-0.00000110,0.00
 000049,0.00000041,-0.00000029,0.00000160,-0.00000006,-0.00000006,-0.00
 000053,-0.00000061,0.00000065,0.00000114,-0.00000040,-0.00000019,-0.00
 000066,-0.00000048,0.00000019,-0.00000169,-0.00000022,-0.00000127,-0.0
 0000018,0.00000044,-0.00000053,-0.00000043,-0.00000042,-0.00000010,0.0
 0000012,0.00000028,0.00000048,0.00000056,-0.00000049,-0.00000068,-0.00
 000017,0.00000006,0.00000101,0.00000080,-0.00000059,0.,0.00000065,-0.0
 0000108,0.00000020,0.00000252,0.00000182,0.00000054,0.00000199,0.00000
 021,-0.00000096,0.00000250,-0.00000082,-0.00000031,-0.00000052,-0.0000
 0065,-0.00000092,-0.00000199,-0.00000042,-0.00000124,-0.00000259,0.000
 00010,-0.00000074,-0.00000078,0.00000012,-0.00000031,-0.00000153,-0.00
 000076,0.00000001,-0.00000050,0.00000050,-0.00000051,0.00000084,-0.000
 00052,-0.00000156,-0.00000047,-0.00000027,-0.00000070,-0.00000117,0.00
 000022,0.00000140,0.00000074,0.00000052,-0.00000044,0.00000086,-0.0000
 0055,-0.00000024,-0.00000040,-0.00000008,0.00000138,0.00000229,0.00000
 179,-0.00000066,0.00000213,0.00000137,0.00000037,0.00000323,0.00000034
 ,0.00000160,0.00000270,-0.00000062,-0.00000057,-0.00000164,-0.00000046
 ,0.00000014,-0.00000071,0.00000019,-0.00000063,0.00000083,0.00000056,-
 0.00000019,0.00000152,0.00000051,-0.00000014,0.00000153,0.00000065,-0.
 00000078,0.00000169,0.00000079,-0.00000061,0.00000219,0.00000040,-0.00
 000098,0.00000223,-0.00000131,-0.00000010,-0.00000193,-0.00000028,-0.0
 0000041,-0.00000232,-0.00000091,0.00000137,-0.00000234,-0.00000067,-0.
 00000144,-0.00000124,-0.00000006,-0.00000165,-0.00000080,-0.00000073,-
 0.00000134,-0.00000194,-0.00000092,-0.00000086,-0.00000260,-0.00000083
 ,-0.00000022,-0.00000204,-0.00000068,-0.00000126,-0.00000215,0.0000003
 6,-0.00000147,-0.00000240,-0.00000058,-0.00000198,-0.00000008,-0.00000
 035,-0.00000108,-0.00000137,-0.00000066,-0.00000075,-0.00000222,-0.000
 00059,-0.00000070,-0.00000164,-0.00000051,0.00000008,-0.00000172,-0.00
 000173,0.00000108,-0.00000393,0.00000078,0.00000028,-0.00000104,-0.000
 00060,-0.00000064,-0.00000212,0.00000012,-0.00000083,0.00000009,0.,0.,
 0.00000016,0.00000020,-0.00000123,0.00000040,0.00000025,-0.00000155,-0
 .00000089,-0.00000003,-0.00000200,-0.00000062,-0.00000028,-0.00000133,
 -0.00000130,-0.00000030,0.00000027,-0.00000144,-0.00000027,0.00000037,
 -0.00000062,-0.00000028,-0.00000024,-0.00000097,0.00000023,0.00000117,
 0.00000092,0.00000061,0.00000112,0.00000109,0.00000082,0.00000121,-0.0
 0000029,0.00000020,-0.00000056,0.00000043,0.00000049,0.00000010,0.0000
 0154,0.00000035,0.00000005,0.00000104,0.00000040,0.00000062,-0.0000000
 5,-0.00000022,0.00000106,-0.00000049,-0.00000015,-0.00000004,-0.000000
 36,-0.00000088,0.00000082,0.00000022,0.00000112,0.00000082,0.00000166,
 0.00000114,-0.00000033,0.00000292,0.00000064,-0.00000048,0.00000282,0.
 00000063,0.00000143,0.00000265,0.00000081,0.00000053,0.00000304,0.0000
 0113,0.00000017,0.00000333,0.00000060,0.00000053,0.00000222,-0.0000000
 9,-0.00000059,0.00000123,0.00000164,0.00000207,0.00000051,0.00000039,0
 .00000143,0.00000113,0.00000072,0.00000182,-0.00000214,-0.00000085,0.0
 0000166,-0.00000234,-0.00000094,0.00000039,-0.00000022,-0.00000091,0.0
 0000276,0.00000189,-0.00000016,0.00000282,0.00000079,0.00000032,0.0000
 0148,0.00000083,0.00000034,0.00000141,-0.00000080,-0.00000115,0.000001
 14,-0.00000163,-0.00000018,0.00000257,-0.00000073,-0.00000111,0.000001
 98,-0.00000014\\\@
 The archive entry for this job was punched.


 "A LITTLE BIT GOES A LONG WAY"
 R.S. MULLIKEN AS QUOTED BY K. RUEDENBERG
 Job cpu time:       8 days  2 hours 40 minutes 20.8 seconds.
 Elapsed time:       0 days  2 hours  3 minutes  0.2 seconds.
 File lengths (MBytes):  RWF=  16831 Int=      0 D2E=      0 Chk=    528 Scr=      1
 Normal termination of Gaussian 16 at Fri Dec 12 04:08:22 2025.
1416851.81user 4081.16system 4:09:49elapsed 9479%CPU (0avgtext+0avgdata 63012032maxresident)k
457896inputs+5067208outputs (8652major+519650157minor)pagefaults 0swaps
