 Entering Gaussian System, Link 0=g16
 Initial command:
 /common/software/install/migrated/gaussian/g16.c01.avx2/g16/l1.exe "/tmp/quach062/31495968/Gau-2603555.inp" -scrdir="/tmp/quach062/31495968/"
 Entering Link 1 = /common/software/install/migrated/gaussian/g16.c01.avx2/g16/l1.exe PID=   2603557.
  
 Copyright (c) 1988-2019, Gaussian, Inc.  All Rights Reserved.
  
 This is part of the Gaussian(R) 16 program.  It is based on
 the Gaussian(R) 09 system (copyright 2009, Gaussian, Inc.),
 the Gaussian(R) 03 system (copyright 2003, Gaussian, Inc.),
 the Gaussian(R) 98 system (copyright 1998, Gaussian, Inc.),
 the Gaussian(R) 94 system (copyright 1995, Gaussian, Inc.),
 the Gaussian 92(TM) system (copyright 1992, Gaussian, Inc.),
 the Gaussian 90(TM) system (copyright 1990, Gaussian, Inc.),
 the Gaussian 88(TM) system (copyright 1988, Gaussian, Inc.),
 the Gaussian 86(TM) system (copyright 1986, Carnegie Mellon
 University), and the Gaussian 82(TM) system (copyright 1983,
 Carnegie Mellon University). Gaussian is a federally registered
 trademark of Gaussian, Inc.
  
 This software contains proprietary and confidential information,
 including trade secrets, belonging to Gaussian, Inc.
  
 This software is provided under written license and may be
 used, copied, transmitted, or stored only in accord with that
 written license.
  
 The following legend is applicable only to US Government
 contracts under FAR:
  
                    RESTRICTED RIGHTS LEGEND
  
 Use, reproduction and disclosure by the US Government is
 subject to restrictions as set forth in subparagraphs (a)
 and (c) of the Commercial Computer Software - Restricted
 Rights clause in FAR 52.227-19.
  
 Gaussian, Inc.
 340 Quinnipiac St., Bldg. 40, Wallingford CT 06492
  
  
 ---------------------------------------------------------------
 Warning -- This program may not be used in any manner that
 competes with the business of Gaussian, Inc. or will provide
 assistance to any competitor of Gaussian, Inc.  The licensee
 of this program is prohibited from giving any competitor of
 Gaussian, Inc. access to this program.  By using this program,
 the user acknowledges that Gaussian, Inc. is engaged in the
 business of creating and licensing software in the field of
 computational chemistry and represents and warrants to the
 licensee that it is not a competitor of Gaussian, Inc. and that
 it will not use this program in any manner prohibited above.
 ---------------------------------------------------------------
  

 Cite this work as:
 Gaussian 16, Revision C.01,
 M. J. Frisch, G. W. Trucks, H. B. Schlegel, G. E. Scuseria, 
 M. A. Robb, J. R. Cheeseman, G. Scalmani, V. Barone, 
 G. A. Petersson, H. Nakatsuji, X. Li, M. Caricato, A. V. Marenich, 
 J. Bloino, B. G. Janesko, R. Gomperts, B. Mennucci, H. P. Hratchian, 
 J. V. Ortiz, A. F. Izmaylov, J. L. Sonnenberg, D. Williams-Young, 
 F. Ding, F. Lipparini, F. Egidi, J. Goings, B. Peng, A. Petrone, 
 T. Henderson, D. Ranasinghe, V. G. Zakrzewski, J. Gao, N. Rega, 
 G. Zheng, W. Liang, M. Hada, M. Ehara, K. Toyota, R. Fukuda, 
 J. Hasegawa, M. Ishida, T. Nakajima, Y. Honda, O. Kitao, H. Nakai, 
 T. Vreven, K. Throssell, J. A. Montgomery, Jr., J. E. Peralta, 
 F. Ogliaro, M. J. Bearpark, J. J. Heyd, E. N. Brothers, K. N. Kudin, 
 V. N. Staroverov, T. A. Keith, R. Kobayashi, J. Normand, 
 K. Raghavachari, A. P. Rendell, J. C. Burant, S. S. Iyengar, 
 J. Tomasi, M. Cossi, J. M. Millam, M. Klene, C. Adamo, R. Cammi, 
 J. W. Ochterski, R. L. Martin, K. Morokuma, O. Farkas, 
 J. B. Foresman, and D. J. Fox, Gaussian, Inc., Wallingford CT, 2019.
 
 ******************************************
 Gaussian 16:  ES64L-G16RevC.01  3-Jul-2019
                11-Feb-2025 
 ******************************************
 %chk=CoIR_S_prod_forMD.chk
 %lindaworkers=in-cn0088
 %nprocshared=128
 Will use up to  128 processors via shared memory.
 %mem=59800MB
 SetLPE:  input flags=" -workerwait 900 -opt "Tsnet.Node.lindarsharg: ssh " "
 SetLPE:    new flags=" -workerwait 900 -opt "Tsnet.Node.lindarsharg: ssh " -opt 'Tsnet.Node.lindarsharg: ssh'  -nodelist 'in-cn0088' -env GAUSS_MDEF=7838105600 -env GAUSS_EXEDIR="/common/software/install/migrated/gaussian/g16.c01.avx2/g16/bsd:/common/software/install/migrated/gaussian/g16.c01.avx2/g16/local:/common/software/install/migrated/gaussian/g16.c01.avx2/g16/extras:/common/software/install/migrated/gaussian/g16.c01.avx2/g16""
 Will use up to    1 processors via Linda.
 ----------------------------------------------------------------------
 # opt=calcall # freq # pop=hirshfeld # m06l/genecp/auto # nosymm integ
 ral=grid=ultrafine # scf=(tight,intrep,xqc) # SCRF=(SMD,Solvent=n,n-Di
 MethylFormamide)
 ----------------------------------------------------------------------
 1/10=4,18=20,19=15,26=6,38=1/1,3;
 2/9=110,12=2,15=1,17=6,18=5,40=1/2;
 3/5=7,11=2,16=1,17=8,25=1,30=1,70=32201,71=2,72=148,74=-53,75=-5,82=28,140=1/1,2,3;
 4//1;
 5/5=2,8=3,13=1,17=20,32=2,38=5,53=148/2,8;
 8/6=4,10=90,11=11/1;
 11/6=1,8=1,9=11,15=111,16=1,31=1/1,2,10;
 10/6=1,31=1/2;
 6/7=2,8=2,9=2,10=2,18=1,28=1,79=1/1;
 7/10=1,25=1,30=1/1,2,3,16;
 1/10=4,18=20,19=15,26=6/3(3);
 2/9=110,15=1/2;
 7/8=1,9=1,25=1,30=1,44=-1/16;
 99//99;
 2/9=110,15=1/2;
 3/5=7,6=1,11=2,16=1,17=8,25=1,30=1,70=32205,71=2,72=148,74=-53,75=-5,82=7,140=1/1,2,3;
 4/5=5,16=3,69=1/1;
 5/5=2,8=3,13=1,17=20,32=2,38=5,53=148/2,8;
 8/6=4,10=90,11=11/1;
 11/6=1,8=1,9=11,15=111,16=1,31=1/1,2,10;
 10/6=1,31=1/2;
 7/10=1,25=1,30=1/1,2,3,16;
 1/10=4,18=20,19=15,26=6/3(-8);
 2/9=110,15=1/2;
 6/7=2,8=2,9=2,10=2,18=1,19=2,28=1,79=1/1;
 7/8=1,9=1,25=1,30=1,44=-1/16;
 99//99;
 ---------------------------
 Input: CoIR_S_prod_noCl.out
 ---------------------------
 Symbolic Z-matrix:
 Charge =  0 Multiplicity = 1
 Co                    0.06193   0.37599  -1.42597 
 O                     1.27615  -1.08786  -1.62551 
 O                    -1.30761  -0.93547  -1.32341 
 N                     1.33197   1.61794  -2.06902 
 N                    -1.14226   1.82386  -1.4237 
 C                     3.32333  -2.26582  -1.72574 
 C                    -3.43588  -1.89587  -0.97022 
 C                     2.55241  -1.05743  -1.85211 
 C                    -2.57932  -0.7579   -1.13209 
 C                     3.24002   0.13035  -2.26115 
 C                    -3.1774    0.54248  -1.07655 
 C                     5.35767  -1.06015  -2.47253 
 C                    -5.37542  -0.40336  -0.59101 
 C                     2.66226  -3.55746  -1.23137 
 C                    -2.86865  -3.31415  -1.10608 
 C                     4.67117  -2.21834  -2.03923 
 C                    -4.78083  -1.67696  -0.69645 
 C                     4.61871   0.09799  -2.57098 
 C                    -4.55141   0.68477  -0.8066 
 C                     6.84689  -1.14883  -2.80061 
 C                    -6.85236  -0.19786  -0.24677 
 C                     2.56073   1.37658  -2.41121 
 C                    -2.42408   1.74591  -1.25195 
 C                     0.73836   2.91677  -2.42082 
 C                    -0.44028   3.12474  -1.47348 
 C                     1.50888  -3.97074  -2.15849 
 C                     2.12383  -3.34632   0.19245 
 C                     3.65049  -4.72413  -1.17983 
 C                    -1.76244  -3.56621  -0.06926 
 C                    -3.94074  -4.38505  -0.89578 
 C                    -2.30103  -3.50377  -2.52161 
 C                     7.41568   0.19863  -3.23977 
 C                     7.62023  -1.62147  -1.56215 
 C                     7.06111  -2.15928  -3.93581 
 C                    -7.53689   0.60105  -1.36338 
 C                    -6.95956   0.59046   1.06609 
 C                    -7.59793  -1.52027  -0.07505 
 C                     0.28508   2.90595  -3.88173 
 C                    -1.26917   4.34256  -1.85891 
 C                    -0.50229   4.1599   -4.23593 
 C                    -1.70736   4.32221  -3.31795 
 H                     5.25029  -3.13148  -1.94681 
 H                    -5.41426  -2.5434   -0.5523 
 H                     5.07763   1.02904  -2.89211 
 H                    -4.94952   1.69674  -0.75217 
 H                     3.13612   2.19544  -2.85608 
 H                    -3.0054    2.6701   -1.22065 
 H                     1.47546   3.71628  -2.26907 
 H                    -0.03596   3.27317  -0.46344 
 H                     1.07239  -4.91514  -1.81433 
 H                     0.72445  -3.21468  -2.17902 
 H                     1.86597  -4.12763  -3.1824 
 H                     2.93295  -3.08096   0.88177 
 H                     1.37435  -2.5543    0.22219 
 H                     1.66049  -4.26723   0.56416 
 H                     3.1338   -5.61903  -0.81991 
 H                     4.06542  -4.96025  -2.16507 
 H                     4.48573  -4.53378  -0.49841 
 H                    -1.37588  -4.58628  -0.17621 
 H                    -0.93129  -2.87022  -0.18964 
 H                    -2.15395  -3.4703    0.94997 
 H                    -3.4899   -5.37529  -1.01294 
 H                    -4.3792   -4.34237   0.1064 
 H                    -4.75435  -4.30882  -1.624 
 H                    -3.08828  -3.3886   -3.27454 
 H                    -1.51208  -2.7822   -2.73696 
 H                    -1.883    -4.51073  -2.63158 
 H                     8.48145   0.09675  -3.46569 
 H                     6.92359   0.57645  -4.14148 
 H                     7.31652   0.95905  -2.4588 
 H                     8.69008  -1.69882  -1.78345 
 H                     7.50073  -0.92104  -0.72926 
 H                     7.28304  -2.60513  -1.22214 
 H                     6.7041   -3.15727  -3.66463 
 H                     6.5336   -1.85177  -4.84452 
 H                     8.12555  -2.24495  -4.17915 
 H                    -8.5935    0.76632  -1.12687 
 H                    -7.07348   1.58195  -1.50357 
 H                    -7.48746   0.06871  -2.31876 
 H                    -6.4907    0.0472    1.8933 
 H                    -6.47272   1.56769   0.99147 
 H                    -8.00892   0.76157   1.33007 
 H                    -8.64677  -1.32439   0.16765 
 H                    -7.5798   -2.12394  -0.98795 
 H                    -7.18151  -2.12478   0.73676 
 H                    -0.34104   2.0165   -4.03995 
 H                     1.16267   2.79005  -4.5262 
 H                    -0.6329    5.21917  -1.68568 
 H                    -2.11939   4.45885  -1.17982 
 H                    -0.81704   4.11798  -5.28326 
 H                     0.14879   5.03964  -4.1414 
 H                    -2.25192   5.24169  -3.5538 
 H                    -2.40865   3.49503  -3.48903 
 C                     0.43124   0.39297   0.57496 
 C                    -0.75358   0.7793    1.37021 
 C                    -1.69839  -0.19635   1.72978 
 C                    -0.98191   2.092     1.81766 
 C                     1.70703   1.14057   0.87225 
 C                    -2.83161   0.12138   2.46827 
 C                    -2.12304   2.4177    2.54236 
 C                    -3.05981   1.43656   2.86648 
 H                     0.58022  -0.68803   0.64855 
 H                    -1.52971  -1.22153   1.41218 
 H                    -0.25608   2.86957   1.59786 
 H                     2.54969   0.73037   0.3102 
 H                     1.95937   1.05725   1.93946 
 H                     1.6448    2.20891   0.64361 
 H                    -3.54199  -0.66001   2.72605 
 H                    -2.27807   3.4427    2.86746 
 H                    -3.9492    1.69332   3.43417 
 

 GradGradGradGradGradGradGradGradGradGradGradGradGradGradGradGradGradGrad
 Berny optimization.
 Initialization pass.
                           ----------------------------
                           !    Initial Parameters    !
                           ! (Angstroms and Degrees)  !
 --------------------------                            --------------------------
 ! Name  Definition              Value          Derivative Info.                !
 --------------------------------------------------------------------------------
 ! R1    R(1,2)                  1.9123         calculate D2E/DX2 analytically  !
 ! R2    R(1,3)                  1.899          calculate D2E/DX2 analytically  !
 ! R3    R(1,4)                  1.8892         calculate D2E/DX2 analytically  !
 ! R4    R(1,5)                  1.8832         calculate D2E/DX2 analytically  !
 ! R5    R(1,94)                 2.0348         calculate D2E/DX2 analytically  !
 ! R6    R(2,8)                  1.2966         calculate D2E/DX2 analytically  !
 ! R7    R(3,9)                  1.2982         calculate D2E/DX2 analytically  !
 ! R8    R(4,22)                 1.2982         calculate D2E/DX2 analytically  !
 ! R9    R(4,24)                 1.4707         calculate D2E/DX2 analytically  !
 ! R10   R(5,23)                 1.2956         calculate D2E/DX2 analytically  !
 ! R11   R(5,25)                 1.479          calculate D2E/DX2 analytically  !
 ! R12   R(6,8)                  1.4389         calculate D2E/DX2 analytically  !
 ! R13   R(6,14)                 1.5329         calculate D2E/DX2 analytically  !
 ! R14   R(6,16)                 1.3846         calculate D2E/DX2 analytically  !
 ! R15   R(7,9)                  1.4335         calculate D2E/DX2 analytically  !
 ! R16   R(7,15)                 1.5335         calculate D2E/DX2 analytically  !
 ! R17   R(7,17)                 1.3899         calculate D2E/DX2 analytically  !
 ! R18   R(8,10)                 1.4321         calculate D2E/DX2 analytically  !
 ! R19   R(9,11)                 1.4324         calculate D2E/DX2 analytically  !
 ! R20   R(10,18)                1.4134         calculate D2E/DX2 analytically  !
 ! R21   R(10,22)                1.4273         calculate D2E/DX2 analytically  !
 ! R22   R(11,19)                1.4075         calculate D2E/DX2 analytically  !
 ! R23   R(11,23)                1.4306         calculate D2E/DX2 analytically  !
 ! R24   R(12,16)                1.4144         calculate D2E/DX2 analytically  !
 ! R25   R(12,18)                1.3773         calculate D2E/DX2 analytically  !
 ! R26   R(12,20)                1.5275         calculate D2E/DX2 analytically  !
 ! R27   R(13,17)                1.4095         calculate D2E/DX2 analytically  !
 ! R28   R(13,19)                1.3818         calculate D2E/DX2 analytically  !
 ! R29   R(13,21)                1.5304         calculate D2E/DX2 analytically  !
 ! R30   R(14,26)                1.5364         calculate D2E/DX2 analytically  !
 ! R31   R(14,27)                1.5368         calculate D2E/DX2 analytically  !
 ! R32   R(14,28)                1.5298         calculate D2E/DX2 analytically  !
 ! R33   R(15,29)                1.537          calculate D2E/DX2 analytically  !
 ! R34   R(15,30)                1.5298         calculate D2E/DX2 analytically  !
 ! R35   R(15,31)                1.5368         calculate D2E/DX2 analytically  !
 ! R36   R(16,42)                1.0852         calculate D2E/DX2 analytically  !
 ! R37   R(17,43)                1.0829         calculate D2E/DX2 analytically  !
 ! R38   R(18,44)                1.0865         calculate D2E/DX2 analytically  !
 ! R39   R(19,45)                1.0888         calculate D2E/DX2 analytically  !
 ! R40   R(20,32)                1.5271         calculate D2E/DX2 analytically  !
 ! R41   R(20,33)                1.5347         calculate D2E/DX2 analytically  !
 ! R42   R(20,34)                1.5348         calculate D2E/DX2 analytically  !
 ! R43   R(21,35)                1.5342         calculate D2E/DX2 analytically  !
 ! R44   R(21,36)                1.5351         calculate D2E/DX2 analytically  !
 ! R45   R(21,37)                1.5278         calculate D2E/DX2 analytically  !
 ! R46   R(22,46)                1.0952         calculate D2E/DX2 analytically  !
 ! R47   R(23,47)                1.0923         calculate D2E/DX2 analytically  !
 ! R48   R(24,25)                1.5264         calculate D2E/DX2 analytically  !
 ! R49   R(24,38)                1.5297         calculate D2E/DX2 analytically  !
 ! R50   R(24,48)                1.098          calculate D2E/DX2 analytically  !
 ! R51   R(25,39)                1.5227         calculate D2E/DX2 analytically  !
 ! R52   R(25,49)                1.098          calculate D2E/DX2 analytically  !
 ! R53   R(26,50)                1.0958         calculate D2E/DX2 analytically  !
 ! R54   R(26,51)                1.0897         calculate D2E/DX2 analytically  !
 ! R55   R(26,52)                1.0957         calculate D2E/DX2 analytically  !
 ! R56   R(27,53)                1.0956         calculate D2E/DX2 analytically  !
 ! R57   R(27,54)                1.0908         calculate D2E/DX2 analytically  !
 ! R58   R(27,55)                1.0959         calculate D2E/DX2 analytically  !
 ! R59   R(28,56)                1.0942         calculate D2E/DX2 analytically  !
 ! R60   R(28,57)                1.0948         calculate D2E/DX2 analytically  !
 ! R61   R(28,58)                1.0946         calculate D2E/DX2 analytically  !
 ! R62   R(29,59)                1.0961         calculate D2E/DX2 analytically  !
 ! R63   R(29,60)                1.0907         calculate D2E/DX2 analytically  !
 ! R64   R(29,61)                1.096          calculate D2E/DX2 analytically  !
 ! R65   R(30,62)                1.0943         calculate D2E/DX2 analytically  !
 ! R66   R(30,63)                1.0947         calculate D2E/DX2 analytically  !
 ! R67   R(30,64)                1.0946         calculate D2E/DX2 analytically  !
 ! R68   R(31,65)                1.0954         calculate D2E/DX2 analytically  !
 ! R69   R(31,66)                1.0906         calculate D2E/DX2 analytically  !
 ! R70   R(31,67)                1.0958         calculate D2E/DX2 analytically  !
 ! R71   R(32,68)                1.0942         calculate D2E/DX2 analytically  !
 ! R72   R(32,69)                1.0945         calculate D2E/DX2 analytically  !
 ! R73   R(32,70)                1.0945         calculate D2E/DX2 analytically  !
 ! R74   R(33,71)                1.0952         calculate D2E/DX2 analytically  !
 ! R75   R(33,72)                1.0948         calculate D2E/DX2 analytically  !
 ! R76   R(33,73)                1.094          calculate D2E/DX2 analytically  !
 ! R77   R(34,74)                1.0941         calculate D2E/DX2 analytically  !
 ! R78   R(34,75)                1.0948         calculate D2E/DX2 analytically  !
 ! R79   R(34,76)                1.0953         calculate D2E/DX2 analytically  !
 ! R80   R(35,77)                1.0953         calculate D2E/DX2 analytically  !
 ! R81   R(35,78)                1.0939         calculate D2E/DX2 analytically  !
 ! R82   R(35,79)                1.0948         calculate D2E/DX2 analytically  !
 ! R83   R(36,80)                1.0951         calculate D2E/DX2 analytically  !
 ! R84   R(36,81)                1.0943         calculate D2E/DX2 analytically  !
 ! R85   R(36,82)                1.0955         calculate D2E/DX2 analytically  !
 ! R86   R(37,83)                1.0942         calculate D2E/DX2 analytically  !
 ! R87   R(37,84)                1.0946         calculate D2E/DX2 analytically  !
 ! R88   R(37,85)                1.0945         calculate D2E/DX2 analytically  !
 ! R89   R(38,40)                1.5224         calculate D2E/DX2 analytically  !
 ! R90   R(38,86)                1.0992         calculate D2E/DX2 analytically  !
 ! R91   R(38,87)                1.095          calculate D2E/DX2 analytically  !
 ! R92   R(39,41)                1.5236         calculate D2E/DX2 analytically  !
 ! R93   R(39,88)                1.097          calculate D2E/DX2 analytically  !
 ! R94   R(39,89)                1.0943         calculate D2E/DX2 analytically  !
 ! R95   R(40,41)                1.5236         calculate D2E/DX2 analytically  !
 ! R96   R(40,90)                1.0944         calculate D2E/DX2 analytically  !
 ! R97   R(40,91)                1.0985         calculate D2E/DX2 analytically  !
 ! R98   R(41,92)                1.0944         calculate D2E/DX2 analytically  !
 ! R99   R(41,93)                1.0979         calculate D2E/DX2 analytically  !
 ! R100  R(94,95)                1.4783         calculate D2E/DX2 analytically  !
 ! R101  R(94,98)                1.5083         calculate D2E/DX2 analytically  !
 ! R102  R(94,102)               1.0937         calculate D2E/DX2 analytically  !
 ! R103  R(95,96)                1.4049         calculate D2E/DX2 analytically  !
 ! R104  R(95,97)                1.4055         calculate D2E/DX2 analytically  !
 ! R105  R(96,99)                1.3894         calculate D2E/DX2 analytically  !
 ! R106  R(96,103)               1.0864         calculate D2E/DX2 analytically  !
 ! R107  R(97,100)               1.3905         calculate D2E/DX2 analytically  !
 ! R108  R(97,104)               1.0862         calculate D2E/DX2 analytically  !
 ! R109  R(98,105)               1.0928         calculate D2E/DX2 analytically  !
 ! R110  R(98,106)               1.0998         calculate D2E/DX2 analytically  !
 ! R111  R(98,107)               1.0943         calculate D2E/DX2 analytically  !
 ! R112  R(99,101)               1.393          calculate D2E/DX2 analytically  !
 ! R113  R(99,108)               1.087          calculate D2E/DX2 analytically  !
 ! R114  R(100,101)              1.3947         calculate D2E/DX2 analytically  !
 ! R115  R(100,109)              1.0864         calculate D2E/DX2 analytically  !
 ! R116  R(101,110)              1.0859         calculate D2E/DX2 analytically  !
 ! A1    A(2,1,3)               86.2673         calculate D2E/DX2 analytically  !
 ! A2    A(2,1,4)               92.3419         calculate D2E/DX2 analytically  !
 ! A3    A(2,1,94)              89.642          calculate D2E/DX2 analytically  !
 ! A4    A(3,1,4)              163.1854         calculate D2E/DX2 analytically  !
 ! A5    A(3,1,5)               93.9994         calculate D2E/DX2 analytically  !
 ! A6    A(3,1,94)              94.7924         calculate D2E/DX2 analytically  !
 ! A7    A(4,1,5)               85.6902         calculate D2E/DX2 analytically  !
 ! A8    A(4,1,94)             101.9596         calculate D2E/DX2 analytically  !
 ! A9    A(5,1,94)              96.2263         calculate D2E/DX2 analytically  !
 ! A10   A(1,2,8)              128.7013         calculate D2E/DX2 analytically  !
 ! A11   A(1,3,9)              128.3138         calculate D2E/DX2 analytically  !
 ! A12   A(1,4,22)             127.145          calculate D2E/DX2 analytically  !
 ! A13   A(1,4,24)             112.9945         calculate D2E/DX2 analytically  !
 ! A14   A(22,4,24)            118.8933         calculate D2E/DX2 analytically  !
 ! A15   A(1,5,23)             125.9111         calculate D2E/DX2 analytically  !
 ! A16   A(1,5,25)             111.882          calculate D2E/DX2 analytically  !
 ! A17   A(23,5,25)            121.7993         calculate D2E/DX2 analytically  !
 ! A18   A(8,6,14)             120.3242         calculate D2E/DX2 analytically  !
 ! A19   A(8,6,16)             118.2189         calculate D2E/DX2 analytically  !
 ! A20   A(14,6,16)            121.4475         calculate D2E/DX2 analytically  !
 ! A21   A(9,7,15)             120.2095         calculate D2E/DX2 analytically  !
 ! A22   A(9,7,17)             118.3871         calculate D2E/DX2 analytically  !
 ! A23   A(15,7,17)            121.4026         calculate D2E/DX2 analytically  !
 ! A24   A(2,8,6)              119.4921         calculate D2E/DX2 analytically  !
 ! A25   A(2,8,10)             122.82           calculate D2E/DX2 analytically  !
 ! A26   A(6,8,10)             117.6687         calculate D2E/DX2 analytically  !
 ! A27   A(3,9,7)              119.5639         calculate D2E/DX2 analytically  !
 ! A28   A(3,9,11)             122.6084         calculate D2E/DX2 analytically  !
 ! A29   A(7,9,11)             117.8276         calculate D2E/DX2 analytically  !
 ! A30   A(8,10,18)            120.7944         calculate D2E/DX2 analytically  !
 ! A31   A(8,10,22)            121.716          calculate D2E/DX2 analytically  !
 ! A32   A(18,10,22)           117.4631         calculate D2E/DX2 analytically  !
 ! A33   A(9,11,19)            120.4521         calculate D2E/DX2 analytically  !
 ! A34   A(9,11,23)            122.6207         calculate D2E/DX2 analytically  !
 ! A35   A(19,11,23)           116.9064         calculate D2E/DX2 analytically  !
 ! A36   A(16,12,18)           116.7468         calculate D2E/DX2 analytically  !
 ! A37   A(16,12,20)           119.437          calculate D2E/DX2 analytically  !
 ! A38   A(18,12,20)           123.8162         calculate D2E/DX2 analytically  !
 ! A39   A(17,13,19)           116.6342         calculate D2E/DX2 analytically  !
 ! A40   A(17,13,21)           123.0432         calculate D2E/DX2 analytically  !
 ! A41   A(19,13,21)           120.3211         calculate D2E/DX2 analytically  !
 ! A42   A(6,14,26)            110.8418         calculate D2E/DX2 analytically  !
 ! A43   A(6,14,27)            109.5196         calculate D2E/DX2 analytically  !
 ! A44   A(6,14,28)            112.0164         calculate D2E/DX2 analytically  !
 ! A45   A(26,14,27)           109.4516         calculate D2E/DX2 analytically  !
 ! A46   A(26,14,28)           107.4647         calculate D2E/DX2 analytically  !
 ! A47   A(27,14,28)           107.4503         calculate D2E/DX2 analytically  !
 ! A48   A(7,15,29)            110.9854         calculate D2E/DX2 analytically  !
 ! A49   A(7,15,30)            112.0866         calculate D2E/DX2 analytically  !
 ! A50   A(7,15,31)            109.41           calculate D2E/DX2 analytically  !
 ! A51   A(29,15,30)           107.2681         calculate D2E/DX2 analytically  !
 ! A52   A(29,15,31)           109.5898         calculate D2E/DX2 analytically  !
 ! A53   A(30,15,31)           107.4021         calculate D2E/DX2 analytically  !
 ! A54   A(6,16,12)            124.7445         calculate D2E/DX2 analytically  !
 ! A55   A(6,16,42)            118.1198         calculate D2E/DX2 analytically  !
 ! A56   A(12,16,42)           117.1356         calculate D2E/DX2 analytically  !
 ! A57   A(7,17,13)            124.4206         calculate D2E/DX2 analytically  !
 ! A58   A(7,17,43)            117.7886         calculate D2E/DX2 analytically  !
 ! A59   A(13,17,43)           117.7906         calculate D2E/DX2 analytically  !
 ! A60   A(10,18,12)           121.7963         calculate D2E/DX2 analytically  !
 ! A61   A(10,18,44)           117.203          calculate D2E/DX2 analytically  !
 ! A62   A(12,18,44)           121.0008         calculate D2E/DX2 analytically  !
 ! A63   A(11,19,13)           122.1709         calculate D2E/DX2 analytically  !
 ! A64   A(11,19,45)           117.4183         calculate D2E/DX2 analytically  !
 ! A65   A(13,19,45)           120.3999         calculate D2E/DX2 analytically  !
 ! A66   A(12,20,32)           111.9419         calculate D2E/DX2 analytically  !
 ! A67   A(12,20,33)           109.6232         calculate D2E/DX2 analytically  !
 ! A68   A(12,20,34)           109.4607         calculate D2E/DX2 analytically  !
 ! A69   A(32,20,33)           108.4292         calculate D2E/DX2 analytically  !
 ! A70   A(32,20,34)           108.4349         calculate D2E/DX2 analytically  !
 ! A71   A(33,20,34)           108.8921         calculate D2E/DX2 analytically  !
 ! A72   A(13,21,35)           109.683          calculate D2E/DX2 analytically  !
 ! A73   A(13,21,36)           109.1917         calculate D2E/DX2 analytically  !
 ! A74   A(13,21,37)           112.3349         calculate D2E/DX2 analytically  !
 ! A75   A(35,21,36)           108.8976         calculate D2E/DX2 analytically  !
 ! A76   A(35,21,37)           108.3489         calculate D2E/DX2 analytically  !
 ! A77   A(36,21,37)           108.318          calculate D2E/DX2 analytically  !
 ! A78   A(4,22,10)            125.8121         calculate D2E/DX2 analytically  !
 ! A79   A(4,22,46)            117.7322         calculate D2E/DX2 analytically  !
 ! A80   A(10,22,46)           116.4556         calculate D2E/DX2 analytically  !
 ! A81   A(5,23,11)            126.0044         calculate D2E/DX2 analytically  !
 ! A82   A(5,23,47)            118.6486         calculate D2E/DX2 analytically  !
 ! A83   A(11,23,47)           115.3415         calculate D2E/DX2 analytically  !
 ! A84   A(4,24,25)            106.4707         calculate D2E/DX2 analytically  !
 ! A85   A(4,24,38)            109.9866         calculate D2E/DX2 analytically  !
 ! A86   A(4,24,48)            109.8179         calculate D2E/DX2 analytically  !
 ! A87   A(25,24,38)           111.4014         calculate D2E/DX2 analytically  !
 ! A88   A(25,24,48)           109.4746         calculate D2E/DX2 analytically  !
 ! A89   A(38,24,48)           109.638          calculate D2E/DX2 analytically  !
 ! A90   A(5,25,24)            105.5179         calculate D2E/DX2 analytically  !
 ! A91   A(5,25,39)            116.9741         calculate D2E/DX2 analytically  !
 ! A92   A(5,25,49)            105.2305         calculate D2E/DX2 analytically  !
 ! A93   A(24,25,39)           111.8512         calculate D2E/DX2 analytically  !
 ! A94   A(24,25,49)           107.758          calculate D2E/DX2 analytically  !
 ! A95   A(39,25,49)           108.9749         calculate D2E/DX2 analytically  !
 ! A96   A(14,26,50)           109.9571         calculate D2E/DX2 analytically  !
 ! A97   A(14,26,51)           111.4158         calculate D2E/DX2 analytically  !
 ! A98   A(14,26,52)           110.9624         calculate D2E/DX2 analytically  !
 ! A99   A(50,26,51)           108.4898         calculate D2E/DX2 analytically  !
 ! A100  A(50,26,52)           107.4522         calculate D2E/DX2 analytically  !
 ! A101  A(51,26,52)           108.4423         calculate D2E/DX2 analytically  !
 ! A102  A(14,27,53)           110.945          calculate D2E/DX2 analytically  !
 ! A103  A(14,27,54)           111.4529         calculate D2E/DX2 analytically  !
 ! A104  A(14,27,55)           110.3003         calculate D2E/DX2 analytically  !
 ! A105  A(53,27,54)           108.3251         calculate D2E/DX2 analytically  !
 ! A106  A(53,27,55)           107.601          calculate D2E/DX2 analytically  !
 ! A107  A(54,27,55)           108.0832         calculate D2E/DX2 analytically  !
 ! A108  A(14,28,56)           109.254          calculate D2E/DX2 analytically  !
 ! A109  A(14,28,57)           112.2704         calculate D2E/DX2 analytically  !
 ! A110  A(14,28,58)           112.4119         calculate D2E/DX2 analytically  !
 ! A111  A(56,28,57)           107.3718         calculate D2E/DX2 analytically  !
 ! A112  A(56,28,58)           107.3229         calculate D2E/DX2 analytically  !
 ! A113  A(57,28,58)           107.9705         calculate D2E/DX2 analytically  !
 ! A114  A(15,29,59)           109.9156         calculate D2E/DX2 analytically  !
 ! A115  A(15,29,60)           111.6751         calculate D2E/DX2 analytically  !
 ! A116  A(15,29,61)           110.8475         calculate D2E/DX2 analytically  !
 ! A117  A(59,29,60)           108.3199         calculate D2E/DX2 analytically  !
 ! A118  A(59,29,61)           107.3467         calculate D2E/DX2 analytically  !
 ! A119  A(60,29,61)           108.6018         calculate D2E/DX2 analytically  !
 ! A120  A(15,30,62)           109.2687         calculate D2E/DX2 analytically  !
 ! A121  A(15,30,63)           112.2861         calculate D2E/DX2 analytically  !
 ! A122  A(15,30,64)           112.3768         calculate D2E/DX2 analytically  !
 ! A123  A(62,30,63)           107.3549         calculate D2E/DX2 analytically  !
 ! A124  A(62,30,64)           107.3392         calculate D2E/DX2 analytically  !
 ! A125  A(63,30,64)           107.9764         calculate D2E/DX2 analytically  !
 ! A126  A(15,31,65)           110.774          calculate D2E/DX2 analytically  !
 ! A127  A(15,31,66)           111.5565         calculate D2E/DX2 analytically  !
 ! A128  A(15,31,67)           110.286          calculate D2E/DX2 analytically  !
 ! A129  A(65,31,66)           108.3371         calculate D2E/DX2 analytically  !
 ! A130  A(65,31,67)           107.5654         calculate D2E/DX2 analytically  !
 ! A131  A(66,31,67)           108.1908         calculate D2E/DX2 analytically  !
 ! A132  A(20,32,68)           109.8768         calculate D2E/DX2 analytically  !
 ! A133  A(20,32,69)           111.9656         calculate D2E/DX2 analytically  !
 ! A134  A(20,32,70)           111.9675         calculate D2E/DX2 analytically  !
 ! A135  A(68,32,69)           107.4552         calculate D2E/DX2 analytically  !
 ! A136  A(68,32,70)           107.4723         calculate D2E/DX2 analytically  !
 ! A137  A(69,32,70)           107.8953         calculate D2E/DX2 analytically  !
 ! A138  A(20,33,71)           110.5435         calculate D2E/DX2 analytically  !
 ! A139  A(20,33,72)           111.2161         calculate D2E/DX2 analytically  !
 ! A140  A(20,33,73)           111.8635         calculate D2E/DX2 analytically  !
 ! A141  A(71,33,72)           107.7901         calculate D2E/DX2 analytically  !
 ! A142  A(71,33,73)           107.4801         calculate D2E/DX2 analytically  !
 ! A143  A(72,33,73)           107.7676         calculate D2E/DX2 analytically  !
 ! A144  A(20,34,74)           111.8189         calculate D2E/DX2 analytically  !
 ! A145  A(20,34,75)           111.2074         calculate D2E/DX2 analytically  !
 ! A146  A(20,34,76)           110.5779         calculate D2E/DX2 analytically  !
 ! A147  A(74,34,75)           107.7415         calculate D2E/DX2 analytically  !
 ! A148  A(74,34,76)           107.5085         calculate D2E/DX2 analytically  !
 ! A149  A(75,34,76)           107.8085         calculate D2E/DX2 analytically  !
 ! A150  A(21,35,77)           110.5998         calculate D2E/DX2 analytically  !
 ! A151  A(21,35,78)           111.7908         calculate D2E/DX2 analytically  !
 ! A152  A(21,35,79)           111.2099         calculate D2E/DX2 analytically  !
 ! A153  A(77,35,78)           107.5207         calculate D2E/DX2 analytically  !
 ! A154  A(77,35,79)           107.7801         calculate D2E/DX2 analytically  !
 ! A155  A(78,35,79)           107.7616         calculate D2E/DX2 analytically  !
 ! A156  A(21,36,80)           111.1842         calculate D2E/DX2 analytically  !
 ! A157  A(21,36,81)           111.6658         calculate D2E/DX2 analytically  !
 ! A158  A(21,36,82)           110.6828         calculate D2E/DX2 analytically  !
 ! A159  A(80,36,81)           107.6996         calculate D2E/DX2 analytically  !
 ! A160  A(80,36,82)           107.793          calculate D2E/DX2 analytically  !
 ! A161  A(81,36,82)           107.643          calculate D2E/DX2 analytically  !
 ! A162  A(21,37,83)           109.7397         calculate D2E/DX2 analytically  !
 ! A163  A(21,37,84)           112.0579         calculate D2E/DX2 analytically  !
 ! A164  A(21,37,85)           112.0718         calculate D2E/DX2 analytically  !
 ! A165  A(83,37,84)           107.4325         calculate D2E/DX2 analytically  !
 ! A166  A(83,37,85)           107.4006         calculate D2E/DX2 analytically  !
 ! A167  A(84,37,85)           107.9211         calculate D2E/DX2 analytically  !
 ! A168  A(24,38,40)           111.6927         calculate D2E/DX2 analytically  !
 ! A169  A(24,38,86)           108.1791         calculate D2E/DX2 analytically  !
 ! A170  A(24,38,87)           108.9885         calculate D2E/DX2 analytically  !
 ! A171  A(40,38,86)           109.7797         calculate D2E/DX2 analytically  !
 ! A172  A(40,38,87)           111.3926         calculate D2E/DX2 analytically  !
 ! A173  A(86,38,87)           106.6293         calculate D2E/DX2 analytically  !
 ! A174  A(25,39,41)           112.8474         calculate D2E/DX2 analytically  !
 ! A175  A(25,39,88)           106.464          calculate D2E/DX2 analytically  !
 ! A176  A(25,39,89)           110.5384         calculate D2E/DX2 analytically  !
 ! A177  A(41,39,88)           109.1915         calculate D2E/DX2 analytically  !
 ! A178  A(41,39,89)           111.8536         calculate D2E/DX2 analytically  !
 ! A179  A(88,39,89)           105.5292         calculate D2E/DX2 analytically  !
 ! A180  A(38,40,41)           110.8937         calculate D2E/DX2 analytically  !
 ! A181  A(38,40,90)           109.8671         calculate D2E/DX2 analytically  !
 ! A182  A(38,40,91)           109.4545         calculate D2E/DX2 analytically  !
 ! A183  A(41,40,90)           110.6838         calculate D2E/DX2 analytically  !
 ! A184  A(41,40,91)           109.3668         calculate D2E/DX2 analytically  !
 ! A185  A(90,40,91)           106.468          calculate D2E/DX2 analytically  !
 ! A186  A(39,41,40)           110.5451         calculate D2E/DX2 analytically  !
 ! A187  A(39,41,92)           109.7721         calculate D2E/DX2 analytically  !
 ! A188  A(39,41,93)           110.0605         calculate D2E/DX2 analytically  !
 ! A189  A(40,41,92)           110.6864         calculate D2E/DX2 analytically  !
 ! A190  A(40,41,93)           109.3347         calculate D2E/DX2 analytically  !
 ! A191  A(92,41,93)           106.3558         calculate D2E/DX2 analytically  !
 ! A192  A(1,94,95)            112.6871         calculate D2E/DX2 analytically  !
 ! A193  A(1,94,98)            110.5777         calculate D2E/DX2 analytically  !
 ! A194  A(1,94,102)            94.7403         calculate D2E/DX2 analytically  !
 ! A195  A(95,94,98)           116.2546         calculate D2E/DX2 analytically  !
 ! A196  A(95,94,102)          109.3459         calculate D2E/DX2 analytically  !
 ! A197  A(98,94,102)          111.1879         calculate D2E/DX2 analytically  !
 ! A198  A(94,95,96)           119.6818         calculate D2E/DX2 analytically  !
 ! A199  A(94,95,97)           123.0598         calculate D2E/DX2 analytically  !
 ! A200  A(96,95,97)           117.2481         calculate D2E/DX2 analytically  !
 ! A201  A(95,96,99)           121.7168         calculate D2E/DX2 analytically  !
 ! A202  A(95,96,103)          118.4281         calculate D2E/DX2 analytically  !
 ! A203  A(99,96,103)          119.8545         calculate D2E/DX2 analytically  !
 ! A204  A(95,97,100)          121.1986         calculate D2E/DX2 analytically  !
 ! A205  A(95,97,104)          119.7108         calculate D2E/DX2 analytically  !
 ! A206  A(100,97,104)         119.0905         calculate D2E/DX2 analytically  !
 ! A207  A(94,98,105)          111.3953         calculate D2E/DX2 analytically  !
 ! A208  A(94,98,106)          110.3514         calculate D2E/DX2 analytically  !
 ! A209  A(94,98,107)          113.242          calculate D2E/DX2 analytically  !
 ! A210  A(105,98,106)         107.0808         calculate D2E/DX2 analytically  !
 ! A211  A(105,98,107)         107.6293         calculate D2E/DX2 analytically  !
 ! A212  A(106,98,107)         106.8437         calculate D2E/DX2 analytically  !
 ! A213  A(96,99,101)          120.097          calculate D2E/DX2 analytically  !
 ! A214  A(96,99,108)          119.6473         calculate D2E/DX2 analytically  !
 ! A215  A(101,99,108)         120.2538         calculate D2E/DX2 analytically  !
 ! A216  A(97,100,101)         120.5008         calculate D2E/DX2 analytically  !
 ! A217  A(97,100,109)         119.6078         calculate D2E/DX2 analytically  !
 ! A218  A(101,100,109)        119.8875         calculate D2E/DX2 analytically  !
 ! A219  A(99,101,100)         119.1907         calculate D2E/DX2 analytically  !
 ! A220  A(99,101,110)         120.4552         calculate D2E/DX2 analytically  !
 ! A221  A(100,101,110)        120.3488         calculate D2E/DX2 analytically  !
 ! A222  L(2,1,5,3,-1)         180.2667         calculate D2E/DX2 analytically  !
 ! A223  L(2,1,5,3,-2)         185.9281         calculate D2E/DX2 analytically  !
 ! D1    D(3,1,2,8)            175.4002         calculate D2E/DX2 analytically  !
 ! D2    D(4,1,2,8)             12.1814         calculate D2E/DX2 analytically  !
 ! D3    D(94,1,2,8)           -89.7736         calculate D2E/DX2 analytically  !
 ! D4    D(2,1,3,9)            177.8562         calculate D2E/DX2 analytically  !
 ! D5    D(4,1,3,9)            -96.4067         calculate D2E/DX2 analytically  !
 ! D6    D(5,1,3,9)             -8.072          calculate D2E/DX2 analytically  !
 ! D7    D(94,1,3,9)            88.5296         calculate D2E/DX2 analytically  !
 ! D8    D(2,1,4,22)            -2.7883         calculate D2E/DX2 analytically  !
 ! D9    D(2,1,4,24)           165.72           calculate D2E/DX2 analytically  !
 ! D10   D(3,1,4,22)           -87.6297         calculate D2E/DX2 analytically  !
 ! D11   D(3,1,4,24)            80.8785         calculate D2E/DX2 analytically  !
 ! D12   D(5,1,4,22)          -177.1945         calculate D2E/DX2 analytically  !
 ! D13   D(5,1,4,24)            -8.6863         calculate D2E/DX2 analytically  !
 ! D14   D(94,1,4,22)           87.3419         calculate D2E/DX2 analytically  !
 ! D15   D(94,1,4,24)         -104.1499         calculate D2E/DX2 analytically  !
 ! D16   D(3,1,5,23)             6.2611         calculate D2E/DX2 analytically  !
 ! D17   D(3,1,5,25)           178.9978         calculate D2E/DX2 analytically  !
 ! D18   D(4,1,5,23)           169.4047         calculate D2E/DX2 analytically  !
 ! D19   D(4,1,5,25)           -17.8586         calculate D2E/DX2 analytically  !
 ! D20   D(94,1,5,23)          -89.0103         calculate D2E/DX2 analytically  !
 ! D21   D(94,1,5,25)           83.7263         calculate D2E/DX2 analytically  !
 ! D22   D(2,1,94,95)         -146.2877         calculate D2E/DX2 analytically  !
 ! D23   D(2,1,94,98)           81.716          calculate D2E/DX2 analytically  !
 ! D24   D(2,1,94,102)         -33.0249         calculate D2E/DX2 analytically  !
 ! D25   D(3,1,94,95)          -60.0637         calculate D2E/DX2 analytically  !
 ! D26   D(3,1,94,98)          167.94           calculate D2E/DX2 analytically  !
 ! D27   D(3,1,94,102)          53.1991         calculate D2E/DX2 analytically  !
 ! D28   D(4,1,94,95)          121.3942         calculate D2E/DX2 analytically  !
 ! D29   D(4,1,94,98)          -10.602          calculate D2E/DX2 analytically  !
 ! D30   D(4,1,94,102)        -125.3429         calculate D2E/DX2 analytically  !
 ! D31   D(5,1,94,95)           34.4991         calculate D2E/DX2 analytically  !
 ! D32   D(5,1,94,98)          -97.4971         calculate D2E/DX2 analytically  !
 ! D33   D(5,1,94,102)         147.762          calculate D2E/DX2 analytically  !
 ! D34   D(1,2,8,6)            168.6631         calculate D2E/DX2 analytically  !
 ! D35   D(1,2,8,10)           -12.9706         calculate D2E/DX2 analytically  !
 ! D36   D(1,3,9,7)           -174.5623         calculate D2E/DX2 analytically  !
 ! D37   D(1,3,9,11)             5.555          calculate D2E/DX2 analytically  !
 ! D38   D(1,4,22,10)           -5.7327         calculate D2E/DX2 analytically  !
 ! D39   D(1,4,22,46)          174.2379         calculate D2E/DX2 analytically  !
 ! D40   D(24,4,22,10)        -173.6413         calculate D2E/DX2 analytically  !
 ! D41   D(24,4,22,46)           6.3293         calculate D2E/DX2 analytically  !
 ! D42   D(1,4,24,25)           31.64           calculate D2E/DX2 analytically  !
 ! D43   D(1,4,24,38)          -89.186          calculate D2E/DX2 analytically  !
 ! D44   D(1,4,24,48)          150.0703         calculate D2E/DX2 analytically  !
 ! D45   D(22,4,24,25)        -158.8104         calculate D2E/DX2 analytically  !
 ! D46   D(22,4,24,38)          80.3636         calculate D2E/DX2 analytically  !
 ! D47   D(22,4,24,48)         -40.3801         calculate D2E/DX2 analytically  !
 ! D48   D(1,5,23,11)           -2.2775         calculate D2E/DX2 analytically  !
 ! D49   D(1,5,23,47)          176.8282         calculate D2E/DX2 analytically  !
 ! D50   D(25,5,23,11)        -174.3429         calculate D2E/DX2 analytically  !
 ! D51   D(25,5,23,47)           4.7628         calculate D2E/DX2 analytically  !
 ! D52   D(1,5,25,24)           38.5804         calculate D2E/DX2 analytically  !
 ! D53   D(1,5,25,39)          163.6624         calculate D2E/DX2 analytically  !
 ! D54   D(1,5,25,49)          -75.2265         calculate D2E/DX2 analytically  !
 ! D55   D(23,5,25,24)        -148.3396         calculate D2E/DX2 analytically  !
 ! D56   D(23,5,25,39)         -23.2576         calculate D2E/DX2 analytically  !
 ! D57   D(23,5,25,49)          97.8535         calculate D2E/DX2 analytically  !
 ! D58   D(14,6,8,2)            -4.313          calculate D2E/DX2 analytically  !
 ! D59   D(14,6,8,10)          177.2371         calculate D2E/DX2 analytically  !
 ! D60   D(16,6,8,2)           176.7888         calculate D2E/DX2 analytically  !
 ! D61   D(16,6,8,10)           -1.6611         calculate D2E/DX2 analytically  !
 ! D62   D(8,6,14,26)           59.542          calculate D2E/DX2 analytically  !
 ! D63   D(8,6,14,27)          -61.3228         calculate D2E/DX2 analytically  !
 ! D64   D(8,6,14,28)          179.5639         calculate D2E/DX2 analytically  !
 ! D65   D(16,6,14,26)        -121.596          calculate D2E/DX2 analytically  !
 ! D66   D(16,6,14,27)         117.5392         calculate D2E/DX2 analytically  !
 ! D67   D(16,6,14,28)          -1.5741         calculate D2E/DX2 analytically  !
 ! D68   D(8,6,16,12)            0.3235         calculate D2E/DX2 analytically  !
 ! D69   D(8,6,16,42)         -179.7814         calculate D2E/DX2 analytically  !
 ! D70   D(14,6,16,12)        -178.5617         calculate D2E/DX2 analytically  !
 ! D71   D(14,6,16,42)           1.3334         calculate D2E/DX2 analytically  !
 ! D72   D(15,7,9,3)            -3.662          calculate D2E/DX2 analytically  !
 ! D73   D(15,7,9,11)          176.2263         calculate D2E/DX2 analytically  !
 ! D74   D(17,7,9,3)           176.6535         calculate D2E/DX2 analytically  !
 ! D75   D(17,7,9,11)           -3.4582         calculate D2E/DX2 analytically  !
 ! D76   D(9,7,15,29)           59.962          calculate D2E/DX2 analytically  !
 ! D77   D(9,7,15,30)          179.8798         calculate D2E/DX2 analytically  !
 ! D78   D(9,7,15,31)          -61.0953         calculate D2E/DX2 analytically  !
 ! D79   D(17,7,15,29)        -120.3633         calculate D2E/DX2 analytically  !
 ! D80   D(17,7,15,30)          -0.4455         calculate D2E/DX2 analytically  !
 ! D81   D(17,7,15,31)         118.5795         calculate D2E/DX2 analytically  !
 ! D82   D(9,7,17,13)            1.3084         calculate D2E/DX2 analytically  !
 ! D83   D(9,7,17,43)         -178.5522         calculate D2E/DX2 analytically  !
 ! D84   D(15,7,17,13)        -178.3721         calculate D2E/DX2 analytically  !
 ! D85   D(15,7,17,43)           1.7673         calculate D2E/DX2 analytically  !
 ! D86   D(2,8,10,18)         -176.3344         calculate D2E/DX2 analytically  !
 ! D87   D(2,8,10,22)            1.7445         calculate D2E/DX2 analytically  !
 ! D88   D(6,8,10,18)            2.06           calculate D2E/DX2 analytically  !
 ! D89   D(6,8,10,22)         -179.861          calculate D2E/DX2 analytically  !
 ! D90   D(3,9,11,19)         -177.114          calculate D2E/DX2 analytically  !
 ! D91   D(3,9,11,23)            1.176          calculate D2E/DX2 analytically  !
 ! D92   D(7,9,11,19)            3.0014         calculate D2E/DX2 analytically  !
 ! D93   D(7,9,11,23)         -178.7087         calculate D2E/DX2 analytically  !
 ! D94   D(8,10,18,12)          -1.0907         calculate D2E/DX2 analytically  !
 ! D95   D(8,10,18,44)         178.9303         calculate D2E/DX2 analytically  !
 ! D96   D(22,10,18,12)       -179.249          calculate D2E/DX2 analytically  !
 ! D97   D(22,10,18,44)          0.772          calculate D2E/DX2 analytically  !
 ! D98   D(8,10,22,4)            7.9747         calculate D2E/DX2 analytically  !
 ! D99   D(8,10,22,46)        -171.9963         calculate D2E/DX2 analytically  !
 ! D100  D(18,10,22,4)        -173.8851         calculate D2E/DX2 analytically  !
 ! D101  D(18,10,22,46)          6.1439         calculate D2E/DX2 analytically  !
 ! D102  D(9,11,19,13)          -0.2408         calculate D2E/DX2 analytically  !
 ! D103  D(9,11,19,45)         178.5616         calculate D2E/DX2 analytically  !
 ! D104  D(23,11,19,13)       -178.6257         calculate D2E/DX2 analytically  !
 ! D105  D(23,11,19,45)          0.1767         calculate D2E/DX2 analytically  !
 ! D106  D(9,11,23,5)           -2.886          calculate D2E/DX2 analytically  !
 ! D107  D(9,11,23,47)         177.9824         calculate D2E/DX2 analytically  !
 ! D108  D(19,11,23,5)         175.4609         calculate D2E/DX2 analytically  !
 ! D109  D(19,11,23,47)         -3.6707         calculate D2E/DX2 analytically  !
 ! D110  D(18,12,16,6)           0.6827         calculate D2E/DX2 analytically  !
 ! D111  D(18,12,16,42)       -179.2134         calculate D2E/DX2 analytically  !
 ! D112  D(20,12,16,6)        -179.355          calculate D2E/DX2 analytically  !
 ! D113  D(20,12,16,42)          0.7489         calculate D2E/DX2 analytically  !
 ! D114  D(16,12,18,10)         -0.2913         calculate D2E/DX2 analytically  !
 ! D115  D(16,12,18,44)        179.687          calculate D2E/DX2 analytically  !
 ! D116  D(20,12,18,10)        179.7482         calculate D2E/DX2 analytically  !
 ! D117  D(20,12,18,44)         -0.2735         calculate D2E/DX2 analytically  !
 ! D118  D(16,12,20,32)       -179.5743         calculate D2E/DX2 analytically  !
 ! D119  D(16,12,20,33)        -59.2119         calculate D2E/DX2 analytically  !
 ! D120  D(16,12,20,34)         60.1657         calculate D2E/DX2 analytically  !
 ! D121  D(18,12,20,32)          0.3852         calculate D2E/DX2 analytically  !
 ! D122  D(18,12,20,33)        120.7475         calculate D2E/DX2 analytically  !
 ! D123  D(18,12,20,34)       -119.8748         calculate D2E/DX2 analytically  !
 ! D124  D(19,13,17,7)           1.4389         calculate D2E/DX2 analytically  !
 ! D125  D(19,13,17,43)       -178.7005         calculate D2E/DX2 analytically  !
 ! D126  D(21,13,17,7)        -178.1121         calculate D2E/DX2 analytically  !
 ! D127  D(21,13,17,43)          1.7485         calculate D2E/DX2 analytically  !
 ! D128  D(17,13,19,11)         -1.9635         calculate D2E/DX2 analytically  !
 ! D129  D(17,13,19,45)        179.2689         calculate D2E/DX2 analytically  !
 ! D130  D(21,13,19,11)        177.6004         calculate D2E/DX2 analytically  !
 ! D131  D(21,13,19,45)         -1.1671         calculate D2E/DX2 analytically  !
 ! D132  D(17,13,21,35)       -122.2056         calculate D2E/DX2 analytically  !
 ! D133  D(17,13,21,36)        118.5372         calculate D2E/DX2 analytically  !
 ! D134  D(17,13,21,37)         -1.647          calculate D2E/DX2 analytically  !
 ! D135  D(19,13,21,35)         58.2593         calculate D2E/DX2 analytically  !
 ! D136  D(19,13,21,36)        -60.9979         calculate D2E/DX2 analytically  !
 ! D137  D(19,13,21,37)        178.8179         calculate D2E/DX2 analytically  !
 ! D138  D(6,14,26,50)         177.8073         calculate D2E/DX2 analytically  !
 ! D139  D(6,14,26,51)         -61.8718         calculate D2E/DX2 analytically  !
 ! D140  D(6,14,26,52)          59.0695         calculate D2E/DX2 analytically  !
 ! D141  D(27,14,26,50)        -61.2877         calculate D2E/DX2 analytically  !
 ! D142  D(27,14,26,51)         59.0333         calculate D2E/DX2 analytically  !
 ! D143  D(27,14,26,52)        179.9745         calculate D2E/DX2 analytically  !
 ! D144  D(28,14,26,50)         55.1046         calculate D2E/DX2 analytically  !
 ! D145  D(28,14,26,51)        175.4256         calculate D2E/DX2 analytically  !
 ! D146  D(28,14,26,52)        -63.6332         calculate D2E/DX2 analytically  !
 ! D147  D(6,14,27,53)         -60.0756         calculate D2E/DX2 analytically  !
 ! D148  D(6,14,27,54)          60.7299         calculate D2E/DX2 analytically  !
 ! D149  D(6,14,27,55)        -179.2069         calculate D2E/DX2 analytically  !
 ! D150  D(26,14,27,53)        178.2203         calculate D2E/DX2 analytically  !
 ! D151  D(26,14,27,54)        -60.9742         calculate D2E/DX2 analytically  !
 ! D152  D(26,14,27,55)         59.0889         calculate D2E/DX2 analytically  !
 ! D153  D(28,14,27,53)         61.8189         calculate D2E/DX2 analytically  !
 ! D154  D(28,14,27,54)       -177.3756         calculate D2E/DX2 analytically  !
 ! D155  D(28,14,27,55)        -57.3125         calculate D2E/DX2 analytically  !
 ! D156  D(6,14,28,56)         179.8548         calculate D2E/DX2 analytically  !
 ! D157  D(6,14,28,57)         -61.1459         calculate D2E/DX2 analytically  !
 ! D158  D(6,14,28,58)          60.8279         calculate D2E/DX2 analytically  !
 ! D159  D(26,14,28,56)        -58.1707         calculate D2E/DX2 analytically  !
 ! D160  D(26,14,28,57)         60.8285         calculate D2E/DX2 analytically  !
 ! D161  D(26,14,28,58)       -177.1976         calculate D2E/DX2 analytically  !
 ! D162  D(27,14,28,56)         59.5295         calculate D2E/DX2 analytically  !
 ! D163  D(27,14,28,57)        178.5288         calculate D2E/DX2 analytically  !
 ! D164  D(27,14,28,58)        -59.4974         calculate D2E/DX2 analytically  !
 ! D165  D(7,15,29,59)         179.5191         calculate D2E/DX2 analytically  !
 ! D166  D(7,15,29,60)         -60.2326         calculate D2E/DX2 analytically  !
 ! D167  D(7,15,29,61)          61.0097         calculate D2E/DX2 analytically  !
 ! D168  D(30,15,29,59)         56.7698         calculate D2E/DX2 analytically  !
 ! D169  D(30,15,29,60)        177.0182         calculate D2E/DX2 analytically  !
 ! D170  D(30,15,29,61)        -61.7396         calculate D2E/DX2 analytically  !
 ! D171  D(31,15,29,59)        -59.5297         calculate D2E/DX2 analytically  !
 ! D172  D(31,15,29,60)         60.7186         calculate D2E/DX2 analytically  !
 ! D173  D(31,15,29,61)       -178.0391         calculate D2E/DX2 analytically  !
 ! D174  D(7,15,30,62)         179.4099         calculate D2E/DX2 analytically  !
 ! D175  D(7,15,30,63)         -61.5923         calculate D2E/DX2 analytically  !
 ! D176  D(7,15,30,64)          60.3748         calculate D2E/DX2 analytically  !
 ! D177  D(29,15,30,62)        -58.5255         calculate D2E/DX2 analytically  !
 ! D178  D(29,15,30,63)         60.4723         calculate D2E/DX2 analytically  !
 ! D179  D(29,15,30,64)       -177.5606         calculate D2E/DX2 analytically  !
 ! D180  D(31,15,30,62)         59.2093         calculate D2E/DX2 analytically  !
 ! D181  D(31,15,30,63)        178.2071         calculate D2E/DX2 analytically  !
 ! D182  D(31,15,30,64)        -59.8258         calculate D2E/DX2 analytically  !
 ! D183  D(7,15,31,65)         -61.5552         calculate D2E/DX2 analytically  !
 ! D184  D(7,15,31,66)          59.2184         calculate D2E/DX2 analytically  !
 ! D185  D(7,15,31,67)         179.4754         calculate D2E/DX2 analytically  !
 ! D186  D(29,15,31,65)        176.545          calculate D2E/DX2 analytically  !
 ! D187  D(29,15,31,66)        -62.6814         calculate D2E/DX2 analytically  !
 ! D188  D(29,15,31,67)         57.5756         calculate D2E/DX2 analytically  !
 ! D189  D(30,15,31,65)         60.3303         calculate D2E/DX2 analytically  !
 ! D190  D(30,15,31,66)       -178.8961         calculate D2E/DX2 analytically  !
 ! D191  D(30,15,31,67)        -58.6391         calculate D2E/DX2 analytically  !
 ! D192  D(12,20,32,68)        179.992          calculate D2E/DX2 analytically  !
 ! D193  D(12,20,32,69)        -60.6842         calculate D2E/DX2 analytically  !
 ! D194  D(12,20,32,70)         60.6453         calculate D2E/DX2 analytically  !
 ! D195  D(33,20,32,68)         58.9364         calculate D2E/DX2 analytically  !
 ! D196  D(33,20,32,69)        178.2603         calculate D2E/DX2 analytically  !
 ! D197  D(33,20,32,70)        -60.4102         calculate D2E/DX2 analytically  !
 ! D198  D(34,20,32,68)        -59.1515         calculate D2E/DX2 analytically  !
 ! D199  D(34,20,32,69)         60.1723         calculate D2E/DX2 analytically  !
 ! D200  D(34,20,32,70)       -178.4981         calculate D2E/DX2 analytically  !
 ! D201  D(12,20,33,71)        179.5072         calculate D2E/DX2 analytically  !
 ! D202  D(12,20,33,72)        -60.7914         calculate D2E/DX2 analytically  !
 ! D203  D(12,20,33,73)         59.7712         calculate D2E/DX2 analytically  !
 ! D204  D(32,20,33,71)        -58.016          calculate D2E/DX2 analytically  !
 ! D205  D(32,20,33,72)         61.6854         calculate D2E/DX2 analytically  !
 ! D206  D(32,20,33,73)       -177.752          calculate D2E/DX2 analytically  !
 ! D207  D(34,20,33,71)         59.7808         calculate D2E/DX2 analytically  !
 ! D208  D(34,20,33,72)        179.4822         calculate D2E/DX2 analytically  !
 ! D209  D(34,20,33,73)        -59.9552         calculate D2E/DX2 analytically  !
 ! D210  D(12,20,34,74)        -59.6533         calculate D2E/DX2 analytically  !
 ! D211  D(12,20,34,75)         60.8393         calculate D2E/DX2 analytically  !
 ! D212  D(12,20,34,76)       -179.4191         calculate D2E/DX2 analytically  !
 ! D213  D(32,20,34,74)        177.967          calculate D2E/DX2 analytically  !
 ! D214  D(32,20,34,75)        -61.5404         calculate D2E/DX2 analytically  !
 ! D215  D(32,20,34,76)         58.2012         calculate D2E/DX2 analytically  !
 ! D216  D(33,20,34,74)         60.1739         calculate D2E/DX2 analytically  !
 ! D217  D(33,20,34,75)       -179.3335         calculate D2E/DX2 analytically  !
 ! D218  D(33,20,34,76)        -59.5919         calculate D2E/DX2 analytically  !
 ! D219  D(13,21,35,77)       -179.3869         calculate D2E/DX2 analytically  !
 ! D220  D(13,21,35,78)        -59.6096         calculate D2E/DX2 analytically  !
 ! D221  D(13,21,35,79)         60.8911         calculate D2E/DX2 analytically  !
 ! D222  D(36,21,35,77)        -59.9492         calculate D2E/DX2 analytically  !
 ! D223  D(36,21,35,78)         59.8282         calculate D2E/DX2 analytically  !
 ! D224  D(36,21,35,79)       -179.6712         calculate D2E/DX2 analytically  !
 ! D225  D(37,21,35,77)         57.666          calculate D2E/DX2 analytically  !
 ! D226  D(37,21,35,78)        177.4434         calculate D2E/DX2 analytically  !
 ! D227  D(37,21,35,79)        -62.056          calculate D2E/DX2 analytically  !
 ! D228  D(13,21,36,80)        -60.869          calculate D2E/DX2 analytically  !
 ! D229  D(13,21,36,81)         59.4495         calculate D2E/DX2 analytically  !
 ! D230  D(13,21,36,82)        179.3546         calculate D2E/DX2 analytically  !
 ! D231  D(35,21,36,80)        179.3879         calculate D2E/DX2 analytically  !
 ! D232  D(35,21,36,81)        -60.2936         calculate D2E/DX2 analytically  !
 ! D233  D(35,21,36,82)         59.6116         calculate D2E/DX2 analytically  !
 ! D234  D(37,21,36,80)         61.7532         calculate D2E/DX2 analytically  !
 ! D235  D(37,21,36,81)       -177.9283         calculate D2E/DX2 analytically  !
 ! D236  D(37,21,36,82)        -58.0231         calculate D2E/DX2 analytically  !
 ! D237  D(13,21,37,83)       -179.9005         calculate D2E/DX2 analytically  !
 ! D238  D(13,21,37,84)        -60.6373         calculate D2E/DX2 analytically  !
 ! D239  D(13,21,37,85)         60.8673         calculate D2E/DX2 analytically  !
 ! D240  D(35,21,37,83)        -58.5748         calculate D2E/DX2 analytically  !
 ! D241  D(35,21,37,84)         60.6884         calculate D2E/DX2 analytically  !
 ! D242  D(35,21,37,85)       -177.807          calculate D2E/DX2 analytically  !
 ! D243  D(36,21,37,83)         59.4105         calculate D2E/DX2 analytically  !
 ! D244  D(36,21,37,84)        178.6737         calculate D2E/DX2 analytically  !
 ! D245  D(36,21,37,85)        -59.8217         calculate D2E/DX2 analytically  !
 ! D246  D(4,24,25,5)          -43.6057         calculate D2E/DX2 analytically  !
 ! D247  D(4,24,25,39)        -171.8147         calculate D2E/DX2 analytically  !
 ! D248  D(4,24,25,49)          68.4313         calculate D2E/DX2 analytically  !
 ! D249  D(38,24,25,5)          76.3083         calculate D2E/DX2 analytically  !
 ! D250  D(38,24,25,39)        -51.9008         calculate D2E/DX2 analytically  !
 ! D251  D(38,24,25,49)       -171.6547         calculate D2E/DX2 analytically  !
 ! D252  D(48,24,25,5)        -162.2613         calculate D2E/DX2 analytically  !
 ! D253  D(48,24,25,39)         69.5296         calculate D2E/DX2 analytically  !
 ! D254  D(48,24,25,49)        -50.2243         calculate D2E/DX2 analytically  !
 ! D255  D(4,24,38,40)         172.3387         calculate D2E/DX2 analytically  !
 ! D256  D(4,24,38,86)          51.4108         calculate D2E/DX2 analytically  !
 ! D257  D(4,24,38,87)         -64.1548         calculate D2E/DX2 analytically  !
 ! D258  D(25,24,38,40)         54.5259         calculate D2E/DX2 analytically  !
 ! D259  D(25,24,38,86)        -66.402          calculate D2E/DX2 analytically  !
 ! D260  D(25,24,38,87)        178.0324         calculate D2E/DX2 analytically  !
 ! D261  D(48,24,38,40)        -66.8094         calculate D2E/DX2 analytically  !
 ! D262  D(48,24,38,86)        172.2627         calculate D2E/DX2 analytically  !
 ! D263  D(48,24,38,87)         56.6971         calculate D2E/DX2 analytically  !
 ! D264  D(5,25,39,41)         -69.1631         calculate D2E/DX2 analytically  !
 ! D265  D(5,25,39,88)         171.0694         calculate D2E/DX2 analytically  !
 ! D266  D(5,25,39,89)          56.9371         calculate D2E/DX2 analytically  !
 ! D267  D(24,25,39,41)         52.6758         calculate D2E/DX2 analytically  !
 ! D268  D(24,25,39,88)        -67.0918         calculate D2E/DX2 analytically  !
 ! D269  D(24,25,39,89)        178.7759         calculate D2E/DX2 analytically  !
 ! D270  D(49,25,39,41)        171.7125         calculate D2E/DX2 analytically  !
 ! D271  D(49,25,39,88)         51.9449         calculate D2E/DX2 analytically  !
 ! D272  D(49,25,39,89)        -62.1874         calculate D2E/DX2 analytically  !
 ! D273  D(24,38,40,41)        -56.9328         calculate D2E/DX2 analytically  !
 ! D274  D(24,38,40,90)       -179.6121         calculate D2E/DX2 analytically  !
 ! D275  D(24,38,40,91)         63.8168         calculate D2E/DX2 analytically  !
 ! D276  D(86,38,40,41)         63.059          calculate D2E/DX2 analytically  !
 ! D277  D(86,38,40,90)        -59.6202         calculate D2E/DX2 analytically  !
 ! D278  D(86,38,40,91)       -176.1913         calculate D2E/DX2 analytically  !
 ! D279  D(87,38,40,41)       -179.0685         calculate D2E/DX2 analytically  !
 ! D280  D(87,38,40,90)         58.2523         calculate D2E/DX2 analytically  !
 ! D281  D(87,38,40,91)        -58.3188         calculate D2E/DX2 analytically  !
 ! D282  D(25,39,41,40)        -54.6298         calculate D2E/DX2 analytically  !
 ! D283  D(25,39,41,92)       -177.0147         calculate D2E/DX2 analytically  !
 ! D284  D(25,39,41,93)         66.252          calculate D2E/DX2 analytically  !
 ! D285  D(88,39,41,40)         63.5535         calculate D2E/DX2 analytically  !
 ! D286  D(88,39,41,92)        -58.8315         calculate D2E/DX2 analytically  !
 ! D287  D(88,39,41,93)       -175.5647         calculate D2E/DX2 analytically  !
 ! D288  D(89,39,41,40)        179.9786         calculate D2E/DX2 analytically  !
 ! D289  D(89,39,41,92)         57.5937         calculate D2E/DX2 analytically  !
 ! D290  D(89,39,41,93)        -59.1395         calculate D2E/DX2 analytically  !
 ! D291  D(38,40,41,39)         56.2749         calculate D2E/DX2 analytically  !
 ! D292  D(38,40,41,92)        178.123          calculate D2E/DX2 analytically  !
 ! D293  D(38,40,41,93)        -65.0378         calculate D2E/DX2 analytically  !
 ! D294  D(90,40,41,39)        178.4795         calculate D2E/DX2 analytically  !
 ! D295  D(90,40,41,92)        -59.6724         calculate D2E/DX2 analytically  !
 ! D296  D(90,40,41,93)         57.1669         calculate D2E/DX2 analytically  !
 ! D297  D(91,40,41,39)        -64.5267         calculate D2E/DX2 analytically  !
 ! D298  D(91,40,41,92)         57.3215         calculate D2E/DX2 analytically  !
 ! D299  D(91,40,41,93)        174.1607         calculate D2E/DX2 analytically  !
 ! D300  D(1,94,95,96)          85.1933         calculate D2E/DX2 analytically  !
 ! D301  D(1,94,95,97)         -96.0092         calculate D2E/DX2 analytically  !
 ! D302  D(98,94,95,96)       -145.6847         calculate D2E/DX2 analytically  !
 ! D303  D(98,94,95,97)         33.1127         calculate D2E/DX2 analytically  !
 ! D304  D(102,94,95,96)       -18.7937         calculate D2E/DX2 analytically  !
 ! D305  D(102,94,95,97)       160.0037         calculate D2E/DX2 analytically  !
 ! D306  D(1,94,98,105)        -55.226          calculate D2E/DX2 analytically  !
 ! D307  D(1,94,98,106)       -174.0287         calculate D2E/DX2 analytically  !
 ! D308  D(1,94,98,107)         66.2585         calculate D2E/DX2 analytically  !
 ! D309  D(95,94,98,105)       174.6416         calculate D2E/DX2 analytically  !
 ! D310  D(95,94,98,106)        55.839          calculate D2E/DX2 analytically  !
 ! D311  D(95,94,98,107)       -63.8738         calculate D2E/DX2 analytically  !
 ! D312  D(102,94,98,105)       48.6722         calculate D2E/DX2 analytically  !
 ! D313  D(102,94,98,106)      -70.1304         calculate D2E/DX2 analytically  !
 ! D314  D(102,94,98,107)      170.1568         calculate D2E/DX2 analytically  !
 ! D315  D(94,95,96,99)       -179.5482         calculate D2E/DX2 analytically  !
 ! D316  D(94,95,96,103)         0.1584         calculate D2E/DX2 analytically  !
 ! D317  D(97,95,96,99)          1.5855         calculate D2E/DX2 analytically  !
 ! D318  D(97,95,96,103)      -178.7079         calculate D2E/DX2 analytically  !
 ! D319  D(94,95,97,100)       178.7741         calculate D2E/DX2 analytically  !
 ! D320  D(94,95,97,104)        -1.3517         calculate D2E/DX2 analytically  !
 ! D321  D(96,95,97,100)        -2.4011         calculate D2E/DX2 analytically  !
 ! D322  D(96,95,97,104)       177.4731         calculate D2E/DX2 analytically  !
 ! D323  D(95,96,99,101)         0.3551         calculate D2E/DX2 analytically  !
 ! D324  D(95,96,99,108)       179.8619         calculate D2E/DX2 analytically  !
 ! D325  D(103,96,99,101)     -179.3474         calculate D2E/DX2 analytically  !
 ! D326  D(103,96,99,108)        0.1594         calculate D2E/DX2 analytically  !
 ! D327  D(95,97,100,101)        1.2948         calculate D2E/DX2 analytically  !
 ! D328  D(95,97,100,109)     -179.426          calculate D2E/DX2 analytically  !
 ! D329  D(104,97,100,101)    -178.5802         calculate D2E/DX2 analytically  !
 ! D330  D(104,97,100,109)       0.6991         calculate D2E/DX2 analytically  !
 ! D331  D(96,99,101,100)       -1.5264         calculate D2E/DX2 analytically  !
 ! D332  D(96,99,101,110)      179.3071         calculate D2E/DX2 analytically  !
 ! D333  D(108,99,101,100)     178.9698         calculate D2E/DX2 analytically  !
 ! D334  D(108,99,101,110)      -0.1967         calculate D2E/DX2 analytically  !
 ! D335  D(97,100,101,99)        0.7162         calculate D2E/DX2 analytically  !
 ! D336  D(97,100,101,110)     179.8836         calculate D2E/DX2 analytically  !
 ! D337  D(109,100,101,99)    -178.5611         calculate D2E/DX2 analytically  !
 ! D338  D(109,100,101,110)      0.6063         calculate D2E/DX2 analytically  !
 --------------------------------------------------------------------------------
 Trust Radius=3.00D-01 FncErr=5.00D-06 GrdErr=5.00D-06 EigMax=2.50D+02 EigMin=1.00D-04
 Number of steps in this run=    660 maximum allowed number of steps=    660.
 GradGradGradGradGradGradGradGradGradGradGradGradGradGradGradGradGradGrad

 Symmetry turned off by external request.
 Stoichiometry    C44H61CoN2O2
 Framework group  C1[X(C44H61CoN2O2)]
 Deg. of freedom   324
 Full point group                 C1      NOp   1
                          Input orientation:                          
 ---------------------------------------------------------------------
 Center     Atomic      Atomic             Coordinates (Angstroms)
 Number     Number       Type             X           Y           Z
 ---------------------------------------------------------------------
      1         27           0        0.061930    0.375994   -1.425974
      2          8           0        1.276145   -1.087858   -1.625511
      3          8           0       -1.307605   -0.935472   -1.323408
      4          7           0        1.331966    1.617944   -2.069025
      5          7           0       -1.142255    1.823859   -1.423702
      6          6           0        3.323333   -2.265824   -1.725739
      7          6           0       -3.435880   -1.895874   -0.970217
      8          6           0        2.552413   -1.057425   -1.852113
      9          6           0       -2.579320   -0.757902   -1.132087
     10          6           0        3.240024    0.130345   -2.261146
     11          6           0       -3.177395    0.542476   -1.076548
     12          6           0        5.357669   -1.060148   -2.472534
     13          6           0       -5.375423   -0.403361   -0.591009
     14          6           0        2.662256   -3.557459   -1.231370
     15          6           0       -2.868650   -3.314149   -1.106081
     16          6           0        4.671175   -2.218341   -2.039227
     17          6           0       -4.780829   -1.676958   -0.696452
     18          6           0        4.618715    0.097991   -2.570978
     19          6           0       -4.551406    0.684768   -0.806596
     20          6           0        6.846892   -1.148827   -2.800614
     21          6           0       -6.852355   -0.197863   -0.246766
     22          6           0        2.560733    1.376583   -2.411213
     23          6           0       -2.424079    1.745905   -1.251945
     24          6           0        0.738356    2.916769   -2.420819
     25          6           0       -0.440275    3.124737   -1.473481
     26          6           0        1.508880   -3.970743   -2.158485
     27          6           0        2.123834   -3.346324    0.192446
     28          6           0        3.650485   -4.724127   -1.179828
     29          6           0       -1.762444   -3.566212   -0.069256
     30          6           0       -3.940738   -4.385049   -0.895778
     31          6           0       -2.301032   -3.503766   -2.521610
     32          6           0        7.415677    0.198634   -3.239774
     33          6           0        7.620233   -1.621472   -1.562146
     34          6           0        7.061113   -2.159279   -3.935811
     35          6           0       -7.536890    0.601054   -1.363383
     36          6           0       -6.959564    0.590455    1.066091
     37          6           0       -7.597930   -1.520273   -0.075051
     38          6           0        0.285084    2.905951   -3.881731
     39          6           0       -1.269166    4.342556   -1.858911
     40          6           0       -0.502288    4.159896   -4.235933
     41          6           0       -1.707358    4.322208   -3.317953
     42          1           0        5.250291   -3.131480   -1.946811
     43          1           0       -5.414256   -2.543403   -0.552296
     44          1           0        5.077627    1.029045   -2.892111
     45          1           0       -4.949516    1.696740   -0.752171
     46          1           0        3.136124    2.195443   -2.856076
     47          1           0       -3.005400    2.670095   -1.220651
     48          1           0        1.475461    3.716278   -2.269070
     49          1           0       -0.035963    3.273174   -0.463441
     50          1           0        1.072388   -4.915138   -1.814325
     51          1           0        0.724451   -3.214680   -2.179018
     52          1           0        1.865973   -4.127626   -3.182404
     53          1           0        2.932945   -3.080963    0.881771
     54          1           0        1.374345   -2.554296    0.222191
     55          1           0        1.660487   -4.267232    0.564159
     56          1           0        3.133804   -5.619033   -0.819912
     57          1           0        4.065416   -4.960249   -2.165067
     58          1           0        4.485726   -4.533776   -0.498407
     59          1           0       -1.375878   -4.586281   -0.176211
     60          1           0       -0.931285   -2.870215   -0.189644
     61          1           0       -2.153945   -3.470303    0.949969
     62          1           0       -3.489897   -5.375292   -1.012936
     63          1           0       -4.379199   -4.342371    0.106403
     64          1           0       -4.754354   -4.308815   -1.623995
     65          1           0       -3.088281   -3.388603   -3.274536
     66          1           0       -1.512080   -2.782196   -2.736964
     67          1           0       -1.882997   -4.510726   -2.631579
     68          1           0        8.481446    0.096752   -3.465685
     69          1           0        6.923592    0.576454   -4.141476
     70          1           0        7.316519    0.959045   -2.458803
     71          1           0        8.690079   -1.698817   -1.783451
     72          1           0        7.500728   -0.921040   -0.729258
     73          1           0        7.283040   -2.605127   -1.222136
     74          1           0        6.704104   -3.157271   -3.664631
     75          1           0        6.533599   -1.851766   -4.844523
     76          1           0        8.125554   -2.244954   -4.179152
     77          1           0       -8.593495    0.766316   -1.126869
     78          1           0       -7.073484    1.581945   -1.503574
     79          1           0       -7.487455    0.068712   -2.318765
     80          1           0       -6.490704    0.047203    1.893301
     81          1           0       -6.472716    1.567687    0.991472
     82          1           0       -8.008916    0.761574    1.330071
     83          1           0       -8.646774   -1.324392    0.167649
     84          1           0       -7.579803   -2.123937   -0.987945
     85          1           0       -7.181506   -2.124781    0.736763
     86          1           0       -0.341042    2.016497   -4.039945
     87          1           0        1.162670    2.790054   -4.526196
     88          1           0       -0.632901    5.219174   -1.685683
     89          1           0       -2.119393    4.458846   -1.179821
     90          1           0       -0.817035    4.117978   -5.283262
     91          1           0        0.148792    5.039641   -4.141396
     92          1           0       -2.251923    5.241687   -3.553795
     93          1           0       -2.408645    3.495029   -3.489032
     94          6           0        0.431243    0.392972    0.574964
     95          6           0       -0.753576    0.779295    1.370209
     96          6           0       -1.698393   -0.196347    1.729783
     97          6           0       -0.981911    2.091997    1.817656
     98          6           0        1.707032    1.140573    0.872249
     99          6           0       -2.831614    0.121383    2.468265
    100          6           0       -2.123040    2.417703    2.542355
    101          6           0       -3.059811    1.436564    2.866482
    102          1           0        0.580224   -0.688025    0.648550
    103          1           0       -1.529709   -1.221534    1.412176
    104          1           0       -0.256078    2.869569    1.597863
    105          1           0        2.549689    0.730365    0.310200
    106          1           0        1.959365    1.057248    1.939462
    107          1           0        1.644796    2.208913    0.643608
    108          1           0       -3.541993   -0.660007    2.726051
    109          1           0       -2.278072    3.442695    2.867460
    110          1           0       -3.949197    1.693322    3.434170
 ---------------------------------------------------------------------
 Rotational constants (GHZ):           0.1006382           0.0417027           0.0352753
 General basis read from cards:  (5D, 7F)
 ======================================================================================================
                                       Pseudopotential Parameters
 ======================================================================================================
  Center     Atomic      Valence      Angular      Power
  Number     Number     Electrons     Momentum     of R      Exponent        Coefficient   SO-Coeffient
 ======================================================================================================
    1         27           17
                                      F and up 
                                                     2        1.0000000        0.00000000    0.00000000
                                      S - F
                                                     2       23.6600000      283.96056600    0.00000000
                                                     2       10.6100000       47.15684600    0.00000000
                                      P - F
                                                     2       25.0400000      182.21223600    0.00000000
                                                     2       10.4400000       35.23335200    0.00000000
                                      D - F
                                                     2       29.5400000      -26.47533300    0.00000000
                                                     2       10.1800000       -1.82578700    0.00000000
    2          8
                                   No pseudopotential on this center.
    3          8
                                   No pseudopotential on this center.
    4          7
                                   No pseudopotential on this center.
    5          7
                                   No pseudopotential on this center.
    6          6
                                   No pseudopotential on this center.
    7          6
                                   No pseudopotential on this center.
    8          6
                                   No pseudopotential on this center.
    9          6
                                   No pseudopotential on this center.
   10          6
                                   No pseudopotential on this center.
   11          6
                                   No pseudopotential on this center.
   12          6
                                   No pseudopotential on this center.
   13          6
                                   No pseudopotential on this center.
   14          6
                                   No pseudopotential on this center.
   15          6
                                   No pseudopotential on this center.
   16          6
                                   No pseudopotential on this center.
   17          6
                                   No pseudopotential on this center.
   18          6
                                   No pseudopotential on this center.
   19          6
                                   No pseudopotential on this center.
   20          6
                                   No pseudopotential on this center.
   21          6
                                   No pseudopotential on this center.
   22          6
                                   No pseudopotential on this center.
   23          6
                                   No pseudopotential on this center.
   24          6
                                   No pseudopotential on this center.
   25          6
                                   No pseudopotential on this center.
   26          6
[...]
 20,0.00001688,-0.00001044,-0.00002956,0.00007111,-0.00002145,-0.000055
 85,-0.00004698,-0.00000066,-0.00001471,-0.00002671,-0.00000740,0.00001
 814,0.00009180,0.00003237,0.00004898,0.00001542,-0.00000603,-0.0000051
 0,-0.00002385,-0.00000500,-0.00000331,-0.00008093,-0.00000325,0.000012
 65,0.00007589,0.00002863,0.00001157,0.00001069,0.00000795,-0.00000736,
 -0.00000412,0.00001657,-0.00002817,0.00000551,-0.00000086,-0.00000033,
 -0.00000487,0.00001008,-0.00000399,0.00000057,0.00000429,0.00000206,0.
 00000137,0.00000347,0.00000684,-0.00000078,-0.00000656,0.00000248,-0.0
 0000043,-0.00000902,-0.00000262,-0.00000592,-0.00000162,0.00000211,0.0
 0000681,-0.00002415,-0.00000635,-0.00000530,-0.00000036,0.00000150,0.0
 0000536,0.00000155,0.00000487,0.00000383,0.00001032,-0.00000525,-0.000
 02139,-0.00001024,0.00003923,-0.00000393,-0.00001488,-0.00001212,0.000
 01199,-0.00004339,-0.00002051,0.00000013,0.00000012,0.00000078,-0.0000
 0648,-0.00000259,-0.00000351,-0.00000117,0.00000013,-0.00000290,0.0000
 0204,-0.00000528,-0.00000393,0.00000306,-0.00000151,-0.00000171,0.0000
 0010,0.00000005,0.00000098,0.00000159,-0.00000198,0.00000102,0.0000018
 0,0.00000101,-0.00000278,0.00000285,0.00000118,0.00000200,-0.00000414,
 -0.00000428,0.00000450,-0.00000945,-0.00000863,-0.00000287,-0.00000250
 ,0.00000383,-0.00000129,0.00000770,0.00000177,0.00000595,0.00003697,-0
 .00001073,-0.00001563,0.00000448,-0.00000442,0.00000066,-0.00001507,0.
 00000962,0.00000472,0.00000205,-0.00000069,-0.00000019,-0.00000081,0.0
 0000072,0.00000240,0.00000164,0.00000240,-0.00000083,-0.00001439,-0.00
 000330,-0.00000547,0.00000555,0.00000100,-0.00000303,-0.00000606,0.000
 00300,0.00001201,0.00000389,0.00000520,-0.00000341,-0.00001279,-0.0000
 2616,0.00000556,-0.00000039,-0.00000158,0.00000013,0.00000179,0.000002
 78,0.00000104,0.00000080,-0.00000149,-0.00000036,0.00000119,-0.0000005
 5,0.00000061,0.00000032,0.00000936,-0.00000040,0.00000305,-0.00000468,
 0.00000059,-0.00000005,-0.00000133,0.00000032,0.00000134,-0.00000117,-
 0.00000043,0.00000004,0.00000015,0.00000066,-0.00000208,-0.00000361,-0
 .00000222,-0.00000495,0.00000481,0.00000142,0.00000148,0.00000013,-0.0
 0000333,-0.00000101,-0.00000142,0.00000025,-0.00000007,-0.00000018,0.0
 0000046,-0.00000130,-0.00000031,-0.00000034,-0.00000147,-0.00000062,-0
 .00000130,-0.00000071,0.00000210,0.00000271,0.00000068,-0.00000327,-0.
 00000107,0.00000087,0.00000033,-0.00000047,-0.00000032,0.00000047,-0.0
 0000032,0.00000033,-0.00000013,-0.00000053,0.00000206,-0.00000043,0.00
 000085,0.00000018,-0.00000093,0.00000005,-0.00000007,0.00000034,0.0000
 0025,0.00000034,0.00000034,0.00000026,-0.00000033,0.00000021,-0.000000
 76,0.00000080,-0.00000104,-0.00000141,-0.00000275,0.00000180,-0.000001
 64,0.00000080,-0.00000106,-0.00000119,0.00000088,0.00000007,-0.0000010
 7,0.00000226,0.00000760,-0.00000320,-0.00000523,-0.00000149,-0.0000044
 0,-0.00000275,0.00000039,0.00000212,-0.00000104,-0.00000034,0.00000025
 ,0.00000026,0.00000061,0.00000092,0.00000065,0.00000066,-0.00000142,0.
 00000020,0.00000095,0.00000304,-0.00000238,0.00000147,-0.00000487,-0.0
 0000110,0.00000701,-0.00000225,-0.00002253,-0.00000029,0.00001540,-0.0
 0000333,0.00000264,0.00000112,-0.00000056,0.00000203,-0.00000038,-0.00
 000026,0.00000032,-0.00000475,-0.00000020,-0.00000101,0.00000090,-0.00
 011475,-0.00084006,0.00017584,0.00588883,-0.00082975,0.00433295,-0.000
 26107,0.00037122,-0.00080081,0.00143879,-0.01603880,-0.00163854,-0.000
 11375,-0.00004045,-0.00000516,0.00376821,0.00005203,0.00504273,0.02014
 914,-0.08136900,-0.06582640,-0.00031129,0.00796996,0.00486296,0.000187
 83,-0.00005201,-0.00039836,-0.00056593,0.00013792,-0.00078218,-0.00243
 619,0.00113971,-0.00276412,0.00004064,0.00001789,0.00000361,-0.0000056
 7,0.00000240,0.00001167,0.00000039,0.00002715,0.00001783,0.00008726,0.
 00035546,0.00024253,-0.02568710,0.08869778,0.06020939,0.00005238,-0.00
 000850,-0.00006414,-0.00004253,0.00001628,0.00002231,0.00006328,-0.000
 00562,0.00008504,0.00000218,0.00000291,-0.00000225,-0.00003071,-0.0000
 3870,0.00006861,-0.00000706,0.00000313,0.00000092,0.00000900,0.0000036
 4,0.00000921,0.00004181,0.00000064,-0.00000419,-0.00009717,0.00000411,
 -0.00002366,-0.00001048,-0.00000257,-0.00000162,0.00001829,-0.00001865
 ,0.00003237,-0.00000241,0.00000415,-0.00000076,-0.00000253,0.00000206,
 0.00001095,-0.00000314,-0.00000099,-0.00000078,0.00000120,-0.00001289,
 -0.00000569,-0.00000129,0.00000268,-0.00000011,-0.00000014,0.00000203,
 -0.00000324,0.00000796,0.00000087,-0.00000111,-0.00001440,0.00000673,0
 .00007071,0.00000229,-0.00000072,-0.00000167,-0.00004340,0.00003778,0.
 00000793,0.00000675,-0.00001202,0.00000209,-0.00002169,0.00002274,-0.0
 0002254,0.00001662,0.00000442,0.00000914,0.00000543,0.00005319,-0.0000
 0058,0.00000143,0.00000019,-0.00000097,0.00000488,-0.00000075,0.000001
 29,0.00000198,0.00000072,-0.00000025,-0.00001196,0.00001417,0.00000496
 ,-0.00000266,0.00000044,0.00000187,-0.00000169,0.00000472,-0.00000321,
 -0.00000108,0.00000057,0.00000051,-0.00000159,0.00000051,0.00000161,-0
 .00000112,-0.00000068,-0.00000042,0.00000815,-0.00000830,-0.00001244,-
 0.00001162,-0.00012491,-0.00004434,0.00000133,-0.00000283,-0.00000454,
 -0.00001332,-0.00000077,-0.00000098,-0.00000834,0.00000661,0.00000578,
 0.00000128,0.00000391,-0.00000097,0.00000433,-0.00000666,-0.00000455,-
 0.00000194,0.00000035,-0.00000006,0.00000176,-0.00000029,-0.00000221,-
 0.00000065,-0.00000117,0.00000026,-0.00000290,0.00001898,0.00000218,-0
 .00000382,-0.00000116,0.00000326,0.00000320,-0.00000250,0.00000109,-0.
 00000488,-0.00000364,0.00000277,0.00002063,0.00003358,-0.00005052,0.00
 000020,0.00000158,-0.00000012,-0.00000150,-0.00000243,-0.00000164,-0.0
 0000085,0.00000057,0.00000159,-0.00000176,0.00000020,-0.00000007,-0.00
 000117,-0.00000346,0.00000131,-0.00000118,0.00000246,-0.00000010,-0.00
 000030,0.00000055,-0.00000014,-0.00000053,0.00000093,0.00000121,-0.000
 00093,0.00000015,-0.00000007,0.00000147,0.00000943,0.00000182,0.000012
 44,-0.00000566,-0.00000307,-0.00000183,-0.00000428,0.00000697,0.000000
 33,0.00000299,0.00000017,0.00000049,-0.00000061,-0.00000021,0.00000213
 ,0.00000069,0.00000038,0.00000139,0.00000054,0.00000217,0.00000163,-0.
 00000260,-0.00000303,-0.00000115,0.00000334,0.00000403,-0.00000060,-0.
 00000020,0.00000017,0.00000008,0.00000012,0.00000007,0.00000012,0.0000
 0015,-0.00000046,-0.00000109,0.00000044,-0.00000036,0.00000048,-0.0000
 0075,-0.00000044,0.00000052,-0.00000040,0.00000031,0.00000056,-0.00000
 021,0.,0.00000019,-0.00000022,-0.00000058,-0.00000185,0.00000091,0.000
 00123,0.00000385,-0.00000218,0.00000121,-0.00000096,0.00000096,0.00000
 059,-0.00000157,0.00000281,-0.00000387,0.00006669,0.00004088,-0.000077
 17,0.00010135,0.00002020,0.00002820,-0.00002439,-0.00000369,-0.0000277
 6,0.00000358,0.00000107,-0.00000078,-0.00000083,-0.00000124,0.00000100
 ,-0.00000061,-0.00000010,0.00000243,0.00000037,0.00000038,-0.00000069,
 -0.00000005,0.,0.00000611,0.00000017,-0.00000504,0.00000216,0.00000286
 ,-0.00000033,-0.00000279,0.00000103,-0.00000141,0.00000203,-0.00000098
 ,-0.00000130,-0.00000039,0.00000219,-0.00000319,0.00000505,-0.00000118
 ,0.00000095,0.00000029,-0.00012449,0.00006873,-0.00059137,-0.00006968,
 -0.00027821,-0.00063991,0.00322575,0.00049095,0.00234851,0.00054906,-0
 .00457871,0.00268655,-0.00003994,-0.00002360,0.00011956,-0.00093512,-0
 .00195967,0.00169170,-0.01228517,0.00825994,0.01036958,-0.23672595,0.0
 5136685,0.12772698,-0.00001863,0.00009596,0.00004743,-0.00018010,-0.00
 016498,0.00021548,-0.00078877,0.00036615,0.00071295,-0.00003223,-0.000
 00425,-0.00000283,0.00001012,0.00000597,-0.00000302,-0.00001246,0.0000
 1834,-0.00000351,-0.00045970,0.00051009,-0.00196512,0.00001514,0.00060
 370,-0.00212379,0.24778175,-0.00004385,0.00000161,0.00003714,0.0000248
 6,-0.00000902,-0.00000561,-0.00009240,0.00001474,-0.00008575,-0.000006
 20,-0.00000276,0.00000822,0.00003334,-0.00000726,0.00000270,0.00000518
 ,-0.00000025,-0.00000197,-0.00001122,-0.00001784,0.00001278,-0.0000261
 3,-0.00000022,0.00000426,0.00015426,-0.00000396,0.00001228,0.00000488,
 0.00000132,-0.00000053,0.00000483,0.00003240,-0.00001293,0.00000304,0.
 00000007,-0.00000050,-0.00000277,0.00001579,0.00000710,0.00000053,0.00
 000243,0.00000135,0.00000630,0.00000014,0.00000640,-0.00000051,-0.0000
 0443,0.00000072,0.00001354,-0.00001101,-0.00000273,-0.00000137,0.00000
 047,0.00000182,-0.00000953,0.00000145,-0.00002920,-0.00000369,-0.00000
 096,-0.00000018,-0.00000966,0.00001962,-0.00001628,-0.00000053,0.00000
 833,-0.00000497,-0.00005076,-0.00002369,0.00001039,0.00001235,-0.00000
 408,0.00000399,-0.00002108,-0.00001523,-0.00000904,-0.00000004,-0.0000
 0030,0.00000169,-0.00000371,0.00000047,-0.00000108,0.00000054,-0.00000
 103,-0.00000213,0.00001884,-0.00002262,-0.00000898,-0.00000247,0.00000
 138,-0.00000212,-0.00000148,-0.00000254,-0.00000058,0.00000050,-0.0000
 0079,0.00000102,0.00000086,-0.00000078,-0.00000140,0.00000283,0.000000
 71,0.00000026,-0.00000324,-0.00000637,-0.00000685,-0.00000986,-0.00009
 740,0.00001110,-0.00000135,0.00000592,0.00000567,-0.00000459,0.0000025
 1,0.00000024,0.00000139,0.00000656,0.00000810,0.00000061,0.00000041,-0
 .00000066,0.00000084,-0.00000348,-0.00000151,0.00000134,0.00000064,-0.
 00000094,-0.00000270,-0.00000499,-0.00000135,0.00000026,0.00000071,-0.
 00000106,0.00000093,-0.00000408,0.00000334,0.00000218,0.00000087,0.,0.
 00000051,0.00000166,0.00000318,0.00000147,0.00000246,-0.00000075,0.000
 01343,0.00001737,-0.00000472,-0.00000103,-0.00000160,-0.00000074,0.000
 00167,0.00000173,0.00000168,-0.00000014,0.00000007,-0.00000089,0.00000
 139,0.00000065,-0.00000059,-0.00000289,0.00000061,0.00000061,-0.000000
 26,-0.00000143,0.00000241,-0.00000065,-0.00000076,0.00000012,0.0000003
 4,0.00000052,0.00000059,0.00000063,0.00000023,0.00000069,-0.00001079,-
 0.00001732,-0.00001389,-0.00002685,0.00000328,0.00000833,0.00000902,0.
 00000412,-0.00001371,0.00000143,-0.00000140,-0.00000035,-0.00000078,-0
 .00000138,0.00000038,-0.00000159,-0.00000113,-0.00000081,-0.00000157,-
 0.00000048,-0.00000252,-0.00000052,0.00000155,0.00000235,-0.00000020,-
 0.00000099,0.00000148,0.00000110,0.00000008,-0.00000073,-0.00000044,0.
 00000025,0.00000003,-0.00000011,0.00000011,-0.00000034,0.00000088,-0.0
 0000018,0.00000054,-0.00000055,0.00000027,0.00000061,-0.00000003,0.000
 00080,0.00000003,0.00000044,-0.00000124,0.00000045,0.00000052,-0.00000
 005,-0.00000068,-0.00000069,0.00000028,-0.00000052,-0.00000057,0.00000
 078,-0.00000145,0.00000043,0.00000053,0.00000130,-0.00000131,0.0000017
 3,-0.00000024,-0.00003520,-0.00000276,-0.00006051,0.00002540,0.0000237
 6,0.00000732,-0.00000174,0.00001409,-0.00000640,0.00000153,-0.00000194
 ,-0.00000032,-0.00000077,-0.00000062,0.00000044,-0.00000191,-0.0000048
 0,0.00000252,0.00000174,-0.00000022,0.00000092,0.00000044,0.00000025,0
 .00000107,-0.00000163,0.00000015,0.00000095,0.00000011,-0.00000016,-0.
 00000168,-0.00000053,0.00000040,-0.00000004,0.00000018,0.00000035,-0.0
 0000067,0.00000027,-0.00000014,0.00000113,0.00000059,-0.00000070,0.000
 00106,0.00015975,0.00018487,0.00020387,-0.00029918,-0.00114167,0.00016
 089,-0.00061531,-0.00522515,-0.00209889,-0.00346835,-0.00255822,-0.000
 16442,0.00000625,0.00000193,-0.00001847,0.02509658,-0.00183970,-0.0155
 3992,-0.01876036,0.00869292,0.01219275,0.05135430,-0.07236778,-0.03751
 514,-0.00006976,0.00002863,0.00001042,0.00133190,-0.00021932,-0.000888
 59,-0.00105406,0.00025774,0.00060174,0.00001794,0.00002955,0.00000008,
 0.00000761,-0.00000518,0.00000344,0.00002023,0.00003899,-0.00000635,0.
 00001514,0.00137425,0.00108890,0.00112955,0.00099862,0.00046857,-0.054
 82809,0.07183722,0.00006197,0.00005182,-0.00017912,0.00003887,-0.00001
 813,0.00000905,-0.00005473,-0.00002136,0.00007362,-0.00004027,-0.00002
 995,0.00001710,-0.00002029,-0.00004580,0.00002997,0.00000870,0.0000052
 2,-0.00000648,-0.00002234,0.00001403,-0.00002025,-0.00004455,-0.000005
 85,-0.00000002,0.00003265,-0.00000620,-0.00003201,0.00001322,-0.000011
 11,-0.00000469,0.00002245,-0.00003474,-0.00001823,0.00000544,-0.000010
 31,0.00000091,-0.00001767,-0.00000142,0.00002069,0.00000077,0.00000750
 ,0.00000030,0.00000233,0.00000229,0.00000361,0.00001151,-0.00000295,-0
 .00000101,0.00001387,-0.00001392,0.00000071,-0.00001360,-0.00000069,0.
 00000452,-0.00000055,0.00000349,-0.00000318,-0.00000772,-0.00000172,0.
 00000183,-0.00001243,0.00000847,-0.00003284,-0.00000687,0.00003502,-0.
 00001108,0.00004799,0.00005023,-0.00001436,0.00001347,-0.00001894,0.00
 000159,0.00000997,0.00004004,0.00003512,-0.00000104,-0.00000206,0.0000
 0288,-0.00000300,-0.00000229,-0.00000121,-0.00000160,-0.00000034,-0.00
 000064,0.00000244,-0.00000476,-0.00000260,0.00000238,-0.00000058,-0.00
 000383,0.00000003,-0.00000140,0.00000198,0.00000239,-0.00000233,0.0000
 0084,0.00000332,0.00000029,-0.00000385,0.00000516,0.00000155,0.0000016
 0,-0.00000290,-0.00000582,-0.00000514,0.00005221,-0.00014501,0.0000039
 9,-0.00000160,0.00000415,0.00000840,0.00000227,0.00000567,0.00000247,0
 .00001307,-0.00000386,-0.00000993,-0.00000077,-0.00000308,-0.00000215,
 -0.00000247,0.00000452,0.00000197,0.00000248,-0.00000069,-0.00000031,-
 0.00000353,-0.00000113,0.00000092,0.00000141,0.00000249,-0.00000081,-0
 .00000379,0.00001688,-0.00001580,0.00000641,0.00000133,-0.00000319,-0.
 00000840,0.00000327,-0.00000701,0.00000050,0.00000512,-0.00000274,-0.0
 0001318,-0.00000105,-0.00005475,-0.00000076,-0.00000242,-0.00000029,0.
 00000240,0.00000393,0.00000185,0.00000054,-0.00000080,-0.00000203,0.00
 000079,-0.00000053,0.00000049,0.00000043,0.00000275,-0.00000179,-0.000
 00062,-0.00000172,0.00000180,-0.00000056,-0.00000188,0.00000067,0.0000
 0089,-0.00000056,-0.00000004,0.00000016,-0.00000003,0.00000024,-0.0000
 0376,-0.00000621,-0.00000455,-0.00000858,0.00000121,0.00000087,0.00000
 339,0.00000194,-0.00000301,-0.00000028,-0.00000061,-0.00000003,0.00000
 031,-0.00000088,0.00000133,-0.00000171,-0.00000057,-0.00000096,-0.0000
 0163,0.00000021,-0.00000183,-0.00000041,0.00000222,0.00000357,-0.00000
 078,-0.00000119,0.00000005,0.00000126,0.00000049,-0.00000065,-0.000000
 07,0.00000008,-0.00000050,0.00000010,0.00000018,0.00000008,0.00000270,
 -0.00000040,0.00000131,-0.00000019,0.00000015,-0.00000017,-0.00000032,
 0.00000014,-0.00000003,-0.00000012,-0.00000016,0.00000035,-0.00000001,
 0.00000002,-0.00000059,0.00000151,-0.00000117,-0.00000180,-0.00000299,
 0.00000059,-0.00000171,0.00000095,0.00000167,-0.00000255,-0.00000113,0
 .00000279,0.00000023,-0.00012555,-0.00007599,-0.00008036,0.00007392,0.
 00009809,-0.00001263,0.00002374,0.00003196,0.00001876,-0.00000174,-0.0
 0000153,-0.00000059,0.00000051,0.00000381,0.00000392,-0.00000192,-0.00
 000195,-0.00000116,0.00000161,0.00000030,0.00000213,-0.00000041,0.0000
 0098,-0.00000227,-0.00000121,0.00000432,-0.00000271,-0.00000348,0.0000
 0215,0.00000070,-0.00000108,0.00000171,-0.00000230,0.00000044,0.000000
 99,0.00000045,-0.00000183,0.00000284,-0.00000378,0.00000031,-0.0000028
 7,-0.00000047,-0.00032204,0.00011143,-0.00067401,-0.00076094,0.0002892
 0,-0.00061429,0.00243959,-0.00273104,0.00533716,0.00313800,0.00033698,
 0.00533578,0.00002134,-0.00002663,-0.00000048,0.00708258,0.00033020,-0
 .00137213,0.00422054,-0.00366364,-0.00076016,0.12806573,-0.03760146,-0
 .11622036,0.00002957,0.00010172,-0.00001646,0.00044288,0.00000944,-0.0
 0006418,0.00034329,-0.00024634,0.00004043,0.00000310,-0.00003037,-0.00
 000450,0.00000370,0.00001629,0.00000772,-0.00000913,-0.00002621,0.0000
 1732,-0.00210111,0.00076654,-0.00263752,-0.00202281,0.00080269,-0.0026
 2745,-0.14062305,0.04163125,0.11455626\\-0.00000074,0.00000081,0.00000
 016,-0.00000068,0.,-0.00000065,-0.00000078,-0.00000015,0.00000053,0.00
 000035,-0.00000050,-0.00000022,0.00000041,-0.00000006,0.00000044,-0.00
 000023,0.00000004,-0.00000125,0.00000027,-0.00000016,0.00000040,-0.000
 00008,-0.00000016,-0.00000073,0.00000044,-0.00000009,-0.00000067,0.000
 00012,0.00000020,-0.00000115,-0.00000043,-0.00000031,0.00000066,-0.000
 00107,0.00000045,-0.00000160,0.00000027,0.,0.00000144,-0.00000016,-0.0
 0000039,-0.00000069,-0.00000030,0.00000010,0.00000071,0.00000037,-0.00
 000069,-0.00000166,-0.00000019,0.00000067,0.00000110,-0.00000034,-0.00
 000038,-0.00000139,-0.00000019,0.00000078,0.00000129,-0.00000066,-0.00
 000057,-0.00000233,-0.00000012,0.00000021,0.00000217,-0.00000102,-0.00
 000025,-0.00000022,0.00000031,0.00000103,0.00000056,0.00000044,0.00000
 071,0.00000033,-0.00000006,-0.00000010,0.00000067,-0.00000042,0.000000
 57,-0.00000058,0.00000079,-0.00000041,-0.00000120,-0.00000026,0.000000
 28,-0.00000220,0.00000032,-0.00000037,0.00000049,-0.00000015,-0.000000
 25,0.00000049,-0.00000049,0.00000013,-0.00000009,-0.00000095,0.0000002
 8,-0.00000219,0.00000025,-0.00000053,-0.00000226,-0.00000149,0.0000003
 3,-0.00000253,0.00000042,0.00000063,0.00000171,0.00000102,-0.00000030,
 0.00000206,0.00000042,0.00000041,0.00000162,-0.00000101,0.00000023,-0.
 00000028,-0.00000038,0.,0.00000095,-0.00000101,0.00000018,0.00000025,-
 0.00000058,-0.00000003,0.00000079,-0.00000077,0.00000035,-0.00000185,-
 0.00000024,-0.00000014,0.00000155,-0.00000056,0.00000001,-0.00000146,0
 .00000015,-0.00000018,0.00000140,-0.00000017,0.00000027,-0.00000098,0.
 00000007,0.00000002,0.00000099,-0.00000055,-0.00000033,-0.00000021,0.,
 0.00000051,0.00000084,-0.00000059,-0.00000016,-0.00000066,-0.00000050,
 -0.00000002,-0.00000045,-0.00000074,-0.00000002,-0.00000127,0.00000047
 ,-0.00000029,-0.00000119,0.00000047,-0.00000027,-0.00000025,0.00000004
 ,0.,-0.00000101,-0.00000042,-0.00000051,-0.00000133,-0.00000056,-0.000
 00012,-0.00000143,0.00000028,-0.00000018,-0.00000154,0.00000011,0.0000
 0031,0.00000007,-0.00000043,0.00000036,0.00000007,0.00000068,-0.000000
 11,0.00000010,-0.00000024,0.00000041,0.00000058,0.00000020,0.00000013,
 0.00000099,-0.00000023,0.00000018,0.00000102,-0.00000067,0.00000030,0.
 00000069,-0.00000046,0.00000027,0.00000014,-0.00000069,0.00000025,0.00
 000025,-0.00000051,-0.00000015,-0.00000256,-0.00000070,-0.00000008,-0.
 00000189,-0.00000027,-0.00000034,-0.00000231,-0.00000041,-0.00000028,-
 0.00000273,0.00000009,-0.00000030,-0.00000224,-0.00000011,-0.00000011,
 -0.00000249,-0.00000079,-0.00000025,-0.00000219,-0.00000104,0.00000002
 ,-0.00000199,-0.00000050,-0.00000018,-0.00000274,-0.00000016,0.0000003
 8,0.00000271,-0.00000023,-0.00000019,0.00000233,-0.00000036,0.00000046
 ,0.00000233,0.00000147,0.00000028,0.00000181,0.00000122,0.00000042,0.0
 0000203,0.00000078,0.00000008,0.00000245,0.00000049,0.00000017,0.00000
 244,0.00000001,0.00000027,0.00000200,0.00000063,0.,0.00000202,-0.00000
 084,0.00000018,0.00000026,-0.00000070,0.00000020,-0.00000013,0.0000002
 1,0.00000031,0.00000066,0.00000034,0.00000008,0.00000095,-0.00000089,0
 .00000039,0.00000084,-0.00000057,0.00000033,0.00000031,-0.00000047,0.0
 0000041,0.00000102,-0.00000046,0.00000034,0.00000100,0.00000079,-0.000
 00082,-0.00000014,0.00000103,-0.00000135,0.00000049,0.00000102,0.00000
 056,0.00000088,0.00000120,0.00000022,-0.00000005,0.00000156,0.00000005
 ,-0.00000113,0.00000110,-0.00000094,0.00000063,0.00000036,-0.00000067,
 0.00000143,0.00000234,0.00000054,0.00000123,0.00000085,0.00000012,-0.0
 0000027,0.00000149,-0.00000072,0.00000127,0.00000034,-0.00000020,-0.00
 000116,0.,-0.00000010,-0.00000060,0.00000093,-0.00000043,-0.00000012,0
 .00000097,-0.00000092,0.00000025,-0.00000012,-0.00000078,0.00000108,0.
 00000137,-0.00000036,0.00000078,0.00000150,-0.00000004,0.00000148\\\@
 The archive entry for this job was punched.


 ... THE UNIVERSE IS NOT ONLY QUEERER THAN WE SUPPOSE,
 BUT QUEERER THAN WE CAN SUPPOSE ... 

                                   -- J. B. S. HALDANE
 Job cpu time:      13 days 21 hours  1 minutes  2.4 seconds.
 Elapsed time:       0 days  3 hours 31 minutes 13.8 seconds.
 File lengths (MBytes):  RWF=  19090 Int=      0 D2E=      0 Chk=    576 Scr=      1
 Normal termination of Gaussian 16 at Wed Feb 12 06:34:34 2025.
2455136.38user 3092.43system 7:12:24elapsed 9474%CPU (0avgtext+0avgdata 64554644maxresident)k
0inputs+3461928outputs (15915major+21732630minor)pagefaults 0swaps
