 Entering Gaussian System, Link 0=g16
 Initial command:
 /common/software/install/migrated/gaussian/g16.c01.avx2/g16/l1.exe "/tmp/quach062/31949993/Gau-4163288.inp" -scrdir="/tmp/quach062/31949993/"
 Entering Link 1 = /common/software/install/migrated/gaussian/g16.c01.avx2/g16/l1.exe PID=   4163291.
  
 Copyright (c) 1988-2019, Gaussian, Inc.  All Rights Reserved.
  
 This is part of the Gaussian(R) 16 program.  It is based on
 the Gaussian(R) 09 system (copyright 2009, Gaussian, Inc.),
 the Gaussian(R) 03 system (copyright 2003, Gaussian, Inc.),
 the Gaussian(R) 98 system (copyright 1998, Gaussian, Inc.),
 the Gaussian(R) 94 system (copyright 1995, Gaussian, Inc.),
 the Gaussian 92(TM) system (copyright 1992, Gaussian, Inc.),
 the Gaussian 90(TM) system (copyright 1990, Gaussian, Inc.),
 the Gaussian 88(TM) system (copyright 1988, Gaussian, Inc.),
 the Gaussian 86(TM) system (copyright 1986, Carnegie Mellon
 University), and the Gaussian 82(TM) system (copyright 1983,
 Carnegie Mellon University). Gaussian is a federally registered
 trademark of Gaussian, Inc.
  
 This software contains proprietary and confidential information,
 including trade secrets, belonging to Gaussian, Inc.
  
 This software is provided under written license and may be
 used, copied, transmitted, or stored only in accord with that
 written license.
  
 The following legend is applicable only to US Government
 contracts under FAR:
  
                    RESTRICTED RIGHTS LEGEND
  
 Use, reproduction and disclosure by the US Government is
 subject to restrictions as set forth in subparagraphs (a)
 and (c) of the Commercial Computer Software - Restricted
 Rights clause in FAR 52.227-19.
  
 Gaussian, Inc.
 340 Quinnipiac St., Bldg. 40, Wallingford CT 06492
  
  
 ---------------------------------------------------------------
 Warning -- This program may not be used in any manner that
 competes with the business of Gaussian, Inc. or will provide
 assistance to any competitor of Gaussian, Inc.  The licensee
 of this program is prohibited from giving any competitor of
 Gaussian, Inc. access to this program.  By using this program,
 the user acknowledges that Gaussian, Inc. is engaged in the
 business of creating and licensing software in the field of
 computational chemistry and represents and warrants to the
 licensee that it is not a competitor of Gaussian, Inc. and that
 it will not use this program in any manner prohibited above.
 ---------------------------------------------------------------
  

 Cite this work as:
 Gaussian 16, Revision C.01,
 M. J. Frisch, G. W. Trucks, H. B. Schlegel, G. E. Scuseria, 
 M. A. Robb, J. R. Cheeseman, G. Scalmani, V. Barone, 
 G. A. Petersson, H. Nakatsuji, X. Li, M. Caricato, A. V. Marenich, 
 J. Bloino, B. G. Janesko, R. Gomperts, B. Mennucci, H. P. Hratchian, 
 J. V. Ortiz, A. F. Izmaylov, J. L. Sonnenberg, D. Williams-Young, 
 F. Ding, F. Lipparini, F. Egidi, J. Goings, B. Peng, A. Petrone, 
 T. Henderson, D. Ranasinghe, V. G. Zakrzewski, J. Gao, N. Rega, 
 G. Zheng, W. Liang, M. Hada, M. Ehara, K. Toyota, R. Fukuda, 
 J. Hasegawa, M. Ishida, T. Nakajima, Y. Honda, O. Kitao, H. Nakai, 
 T. Vreven, K. Throssell, J. A. Montgomery, Jr., J. E. Peralta, 
 F. Ogliaro, M. J. Bearpark, J. J. Heyd, E. N. Brothers, K. N. Kudin, 
 V. N. Staroverov, T. A. Keith, R. Kobayashi, J. Normand, 
 K. Raghavachari, A. P. Rendell, J. C. Burant, S. S. Iyengar, 
 J. Tomasi, M. Cossi, J. M. Millam, M. Klene, C. Adamo, R. Cammi, 
 J. W. Ochterski, R. L. Martin, K. Morokuma, O. Farkas, 
 J. B. Foresman, and D. J. Fox, Gaussian, Inc., Wallingford CT, 2019.
 
 ******************************************
 Gaussian 16:  ES64L-G16RevC.01  3-Jul-2019
                20-Feb-2025 
 ******************************************
 %chk=CoIIandEtBzrad_nbo.chk
 %lindaworkers=in-cn0088
 %nprocshared=128
 Will use up to  128 processors via shared memory.
 %mem=59800MB
 SetLPE:  input flags=" -workerwait 900 -opt "Tsnet.Node.lindarsharg: ssh " "
 SetLPE:    new flags=" -workerwait 900 -opt "Tsnet.Node.lindarsharg: ssh " -opt 'Tsnet.Node.lindarsharg: ssh'  -nodelist 'in-cn0088' -env GAUSS_MDEF=7838105600 -env GAUSS_EXEDIR="/common/software/install/migrated/gaussian/g16.c01.avx2/g16/bsd:/common/software/install/migrated/gaussian/g16.c01.avx2/g16/local:/common/software/install/migrated/gaussian/g16.c01.avx2/g16/extras:/common/software/install/migrated/gaussian/g16.c01.avx2/g16""
 Will use up to    1 processors via Linda.
 ----------------------------------------------------------------------
 # opt=calcall # freq # pop=hirshfeld # m06l/genecp/auto # nosymm integ
 ral=grid=ultrafine # scf=(tight,intrep,xqc) # SCRF=(SMD,Solvent=n,n-Di
 MethylFormamide)
 ----------------------------------------------------------------------
 1/10=4,18=20,19=15,26=6,38=1/1,3;
 2/9=110,12=2,15=1,17=6,18=5,40=1/2;
 3/5=7,11=2,16=1,17=8,25=1,30=1,70=32201,71=2,72=148,74=-53,75=-5,82=28,140=1/1,2,3;
 4//1;
 5/5=2,8=3,13=1,17=20,32=2,38=5,53=148/2,8;
 8/6=4,10=90,11=11/1;
 11/6=1,8=1,9=11,15=111,16=1,31=1/1,2,10;
 10/6=1,31=1/2;
 6/7=2,8=2,9=2,10=2,18=1,28=1,79=1/1;
 7/10=1,25=1,30=1/1,2,3,16;
 1/10=4,18=20,19=15,26=6/3(3);
 2/9=110,15=1/2;
 7/8=1,9=1,25=1,30=1,44=-1/16;
 99//99;
 2/9=110,15=1/2;
 3/5=7,6=1,11=2,16=1,17=8,25=1,30=1,70=32205,71=2,72=148,74=-53,75=-5,82=7,140=1/1,2,3;
 4/5=5,16=3,69=1/1;
 5/5=2,8=3,13=1,17=20,32=2,38=5,53=148/2,8;
 8/6=4,10=90,11=11/1;
 11/6=1,8=1,9=11,15=111,16=1,31=1/1,2,10;
 10/6=1,31=1/2;
 7/10=1,25=1,30=1/1,2,3,16;
 1/10=4,18=20,19=15,26=6/3(-8);
 2/9=110,15=1/2;
 6/7=2,8=2,9=2,10=2,18=1,19=2,28=1,79=1/1;
 7/8=1,9=1,25=1,30=1,44=-1/16;
 99//99;
 -------------
 Input: Ts.out
 -------------
 Symbolic Z-matrix:
 Charge =  0 Multiplicity = 1
 Co                   -0.3473    0.3881   -1.28694 
 O                     0.87103  -1.02379  -1.69217 
 O                    -1.65698  -0.98081  -1.00852 
 N                     0.87213   1.69712  -1.86131 
 N                    -1.63452   1.78114  -1.32483 
 C                     2.94052  -2.15587  -1.83681 
 C                    -3.75323  -2.01721  -0.67575 
 C                     2.15512  -0.9501   -1.83605 
 C                    -2.94689  -0.86051  -0.94183 
 C                     2.84319   0.29463  -2.01635 
 C                    -3.62169   0.39101  -1.12775 
 C                     5.0063   -0.81974  -2.13949 
 C                    -5.81512  -0.66546  -0.90481 
 C                     2.25769  -3.52039  -1.69664 
 C                    -3.08837  -3.36399  -0.36806 
 C                     4.31289  -2.04218  -1.9747 
 C                    -5.13621  -1.87903  -0.67838 
 C                     4.24569   0.32813  -2.17569 
 C                    -5.02898   0.45203  -1.11194 
 C                     6.52797  -0.83276  -2.26684 
 C                    -7.34154  -0.55105  -0.90798 
 C                     2.13487   1.53007  -2.11614 
 C                    -2.92101   1.62882  -1.30446 
 C                     0.23907   2.97224  -2.23141 
 C                    -1.00836   3.11969  -1.36287 
 C                     1.32588  -3.74912  -2.89688 
 C                     1.45128  -3.59757  -0.38987 
 C                     3.26893  -4.66816  -1.67608 
 C                    -2.23067  -3.23416   0.90138 
 C                    -4.11569  -4.46849  -0.11231 
 C                    -2.20537  -3.8189   -1.53985 
 C                     7.10194   0.57823  -2.37307 
 C                     7.14154  -1.5114   -1.03439 
 C                     6.92983  -1.62204  -3.52006 
 C                    -7.8114   -0.00507  -2.26299 
 C                    -7.78586   0.41685   0.19667 
 C                    -8.02414  -1.89726  -0.67071 
 C                    -0.11074   2.94863  -3.7211 
 C                    -1.87609   4.28803  -1.81451 
 C                    -0.93523   4.16082  -4.12951 
 C                    -2.2096    4.25016  -3.30056 
 H                     4.90711  -2.95004  -1.95982 
 H                    -5.73206  -2.7629   -0.48743 
 H                     4.70803   1.30199  -2.3119 
 H                    -5.4894    1.42697  -1.26455 
 H                     2.70727   2.39843  -2.45907 
 H                    -3.55632   2.51174  -1.40307 
 H                     0.92727   3.80346  -2.0269 
 H                    -0.6779    3.30305  -0.33297 
 H                     0.82528  -4.71988  -2.8099 
 H                     0.56045  -2.97533  -2.96388 
 H                     1.89408  -3.7533   -3.83335 
 H                     2.10353  -3.46004   0.47997 
 H                     0.66328  -2.84417  -0.35548 
 H                     0.98776  -4.58629  -0.29681 
 H                     2.73522  -5.61808  -1.57503 
 H                     3.85734  -4.72156  -2.59743 
 H                     3.96504  -4.59282  -0.83437 
 H                    -1.75549  -4.19271   1.13888 
 H                    -1.44519  -2.48658   0.78151 
 H                    -2.84722  -2.94952   1.76119 
 H                    -3.59265  -5.40432   0.1073 
 H                    -4.76181  -4.24752   0.74324 
 H                    -4.75653  -4.64861  -0.98141 
 H                    -2.79674  -3.92958  -2.45574 
 H                    -1.40323  -3.10667  -1.7317 
 H                    -1.7599   -4.79501  -1.31651 
 H                     8.19258   0.53241  -2.44783 
 H                     6.73423   1.10598  -3.25848 
 H                     6.85678   1.18388  -1.49412 
 H                     8.23322  -1.53966  -1.11706 
 H                     6.89035  -0.96959  -0.11681 
 H                     6.79429  -2.54233  -0.91942 
 H                     6.57105  -2.65494  -3.48021 
 H                     6.52211  -1.16161  -4.42576 
 H                     8.01982  -1.65468  -3.62208 
 H                    -8.9023    0.09242  -2.28315 
 H                    -7.38823   0.98225  -2.47035 
 H                    -7.52033  -0.67135  -3.08154 
 H                    -7.47602   0.05998   1.18428 
 H                    -7.36086   1.41484   0.05418 
 H                    -8.87642   0.52006   0.20524 
 H                    -9.11074  -1.76947  -0.69043 
 H                    -7.76595  -2.63034  -1.44147 
 H                    -7.7627   -2.32561   0.30195 
 H                    -0.67721   2.02872  -3.92478 
 H                     0.8153    2.88064  -4.30164 
 H                    -1.30322   5.1988   -1.60027 
 H                    -2.77692   4.35845  -1.19753 
 H                    -1.16983   4.10853  -5.19725 
 H                    -0.34164   5.07394  -3.98517 
 H                    -2.78724   5.13895  -3.5729 
 H                    -2.84859   3.38578  -3.52382 
 C                     2.54447  -0.00676   1.05656 
 C                     1.43421   0.78982   1.11039 
 C                     0.11147   0.23948   0.80287 
 C                     1.47921   2.16897   1.54287 
 C                     3.94743   0.39083   1.32288 
 C                    -1.02282   0.88443   1.40225 
 C                     0.34988   2.79506   1.97367 
 C                    -0.91555   2.12335   1.96338 
 H                     2.37971  -1.05852   0.82724 
 H                     0.07187  -0.84678   0.7269 
 H                     2.43738   2.67574   1.61023 
 H                     4.26804   0.08393   2.32795 
 H                     4.11439   1.46808   1.24535 
 H                     4.62923  -0.10888   0.62566 
 H                    -1.98621   0.38189   1.35671 
 H                     0.40542   3.81151   2.35369 
 H                    -1.78848   2.62115   2.37518 
 

 GradGradGradGradGradGradGradGradGradGradGradGradGradGradGradGradGradGrad
 Berny optimization.
 Initialization pass.
                           ----------------------------
                           !    Initial Parameters    !
                           ! (Angstroms and Degrees)  !
 --------------------------                            --------------------------
 ! Name  Definition              Value          Derivative Info.                !
 --------------------------------------------------------------------------------
 ! R1    R(1,2)                  1.9084         calculate D2E/DX2 analytically  !
 ! R2    R(1,3)                  1.9149         calculate D2E/DX2 analytically  !
 ! R3    R(1,4)                  1.8789         calculate D2E/DX2 analytically  !
 ! R4    R(1,5)                  1.8971         calculate D2E/DX2 analytically  !
 ! R5    R(1,96)                 2.1447         calculate D2E/DX2 analytically  !
 ! R6    R(2,8)                  1.2942         calculate D2E/DX2 analytically  !
 ! R7    R(3,9)                  1.2972         calculate D2E/DX2 analytically  !
 ! R8    R(4,22)                 1.299          calculate D2E/DX2 analytically  !
 ! R9    R(4,24)                 1.4709         calculate D2E/DX2 analytically  !
 ! R10   R(5,23)                 1.2956         calculate D2E/DX2 analytically  !
 ! R11   R(5,25)                 1.4783         calculate D2E/DX2 analytically  !
 ! R12   R(6,8)                  1.439          calculate D2E/DX2 analytically  !
 ! R13   R(6,14)                 1.5323         calculate D2E/DX2 analytically  !
 ! R14   R(6,16)                 1.384          calculate D2E/DX2 analytically  !
 ! R15   R(7,9)                  1.4349         calculate D2E/DX2 analytically  !
 ! R16   R(7,15)                 1.5331         calculate D2E/DX2 analytically  !
 ! R17   R(7,17)                 1.3899         calculate D2E/DX2 analytically  !
 ! R18   R(8,10)                 1.4336         calculate D2E/DX2 analytically  !
 ! R19   R(9,11)                 1.434          calculate D2E/DX2 analytically  !
 ! R20   R(10,18)                1.4119         calculate D2E/DX2 analytically  !
 ! R21   R(10,22)                1.4276         calculate D2E/DX2 analytically  !
 ! R22   R(11,19)                1.4087         calculate D2E/DX2 analytically  !
 ! R23   R(11,23)                1.4333         calculate D2E/DX2 analytically  !
 ! R24   R(12,16)                1.415          calculate D2E/DX2 analytically  !
 ! R25   R(12,18)                1.3775         calculate D2E/DX2 analytically  !
 ! R26   R(12,20)                1.527          calculate D2E/DX2 analytically  !
 ! R27   R(13,17)                1.4089         calculate D2E/DX2 analytically  !
 ! R28   R(13,19)                1.3819         calculate D2E/DX2 analytically  !
 ! R29   R(13,21)                1.5307         calculate D2E/DX2 analytically  !
 ! R30   R(14,26)                1.5366         calculate D2E/DX2 analytically  !
 ! R31   R(14,27)                1.5375         calculate D2E/DX2 analytically  !
 ! R32   R(14,28)                1.5298         calculate D2E/DX2 analytically  !
 ! R33   R(15,29)                1.5375         calculate D2E/DX2 analytically  !
 ! R34   R(15,30)                1.5299         calculate D2E/DX2 analytically  !
 ! R35   R(15,31)                1.5361         calculate D2E/DX2 analytically  !
 ! R36   R(16,42)                1.0851         calculate D2E/DX2 analytically  !
 ! R37   R(17,43)                1.0829         calculate D2E/DX2 analytically  !
 ! R38   R(18,44)                1.0866         calculate D2E/DX2 analytically  !
 ! R39   R(19,45)                1.0889         calculate D2E/DX2 analytically  !
 ! R40   R(20,32)                1.527          calculate D2E/DX2 analytically  !
 ! R41   R(20,33)                1.5349         calculate D2E/DX2 analytically  !
 ! R42   R(20,34)                1.5346         calculate D2E/DX2 analytically  !
 ! R43   R(21,35)                1.5346         calculate D2E/DX2 analytically  !
 ! R44   R(21,36)                1.5344         calculate D2E/DX2 analytically  !
 ! R45   R(21,37)                1.5279         calculate D2E/DX2 analytically  !
 ! R46   R(22,46)                1.0951         calculate D2E/DX2 analytically  !
 ! R47   R(23,47)                1.0922         calculate D2E/DX2 analytically  !
 ! R48   R(24,25)                1.5272         calculate D2E/DX2 analytically  !
 ! R49   R(24,38)                1.5304         calculate D2E/DX2 analytically  !
 ! R50   R(24,48)                1.0984         calculate D2E/DX2 analytically  !
 ! R51   R(25,39)                1.5238         calculate D2E/DX2 analytically  !
 ! R52   R(25,49)                1.0971         calculate D2E/DX2 analytically  !
 ! R53   R(26,50)                1.0957         calculate D2E/DX2 analytically  !
 ! R54   R(26,51)                1.0905         calculate D2E/DX2 analytically  !
 ! R55   R(26,52)                1.0954         calculate D2E/DX2 analytically  !
 ! R56   R(27,53)                1.0959         calculate D2E/DX2 analytically  !
 ! R57   R(27,54)                1.0908         calculate D2E/DX2 analytically  !
 ! R58   R(27,55)                1.0959         calculate D2E/DX2 analytically  !
 ! R59   R(28,56)                1.0943         calculate D2E/DX2 analytically  !
 ! R60   R(28,57)                1.0945         calculate D2E/DX2 analytically  !
 ! R61   R(28,58)                1.0949         calculate D2E/DX2 analytically  !
 ! R62   R(29,59)                1.0959         calculate D2E/DX2 analytically  !
 ! R63   R(29,60)                1.091          calculate D2E/DX2 analytically  !
 ! R64   R(29,61)                1.0956         calculate D2E/DX2 analytically  !
 ! R65   R(30,62)                1.0943         calculate D2E/DX2 analytically  !
 ! R66   R(30,63)                1.0947         calculate D2E/DX2 analytically  !
 ! R67   R(30,64)                1.0947         calculate D2E/DX2 analytically  !
 ! R68   R(31,65)                1.0958         calculate D2E/DX2 analytically  !
 ! R69   R(31,66)                1.0897         calculate D2E/DX2 analytically  !
 ! R70   R(31,67)                1.096          calculate D2E/DX2 analytically  !
 ! R71   R(32,68)                1.0942         calculate D2E/DX2 analytically  !
 ! R72   R(32,69)                1.0944         calculate D2E/DX2 analytically  !
 ! R73   R(32,70)                1.0952         calculate D2E/DX2 analytically  !
 ! R74   R(33,71)                1.0952         calculate D2E/DX2 analytically  !
 ! R75   R(33,72)                1.0948         calculate D2E/DX2 analytically  !
 ! R76   R(33,73)                1.0939         calculate D2E/DX2 analytically  !
 ! R77   R(34,74)                1.0942         calculate D2E/DX2 analytically  !
 ! R78   R(34,75)                1.0948         calculate D2E/DX2 analytically  !
 ! R79   R(34,76)                1.0952         calculate D2E/DX2 analytically  !
 ! R80   R(35,77)                1.0954         calculate D2E/DX2 analytically  !
 ! R81   R(35,78)                1.094          calculate D2E/DX2 analytically  !
 ! R82   R(35,79)                1.0948         calculate D2E/DX2 analytically  !
 ! R83   R(36,80)                1.0949         calculate D2E/DX2 analytically  !
 ! R84   R(36,81)                1.094          calculate D2E/DX2 analytically  !
 ! R85   R(36,82)                1.0955         calculate D2E/DX2 analytically  !
 ! R86   R(37,83)                1.0943         calculate D2E/DX2 analytically  !
 ! R87   R(37,84)                1.0946         calculate D2E/DX2 analytically  !
 ! R88   R(37,85)                1.0945         calculate D2E/DX2 analytically  !
 ! R89   R(38,40)                1.5218         calculate D2E/DX2 analytically  !
 ! R90   R(38,86)                1.0994         calculate D2E/DX2 analytically  !
 ! R91   R(38,87)                1.0951         calculate D2E/DX2 analytically  !
 ! R92   R(39,41)                1.5235         calculate D2E/DX2 analytically  !
 ! R93   R(39,88)                1.0971         calculate D2E/DX2 analytically  !
 ! R94   R(39,89)                1.0941         calculate D2E/DX2 analytically  !
 ! R95   R(40,41)                1.5229         calculate D2E/DX2 analytically  !
 ! R96   R(40,90)                1.0945         calculate D2E/DX2 analytically  !
 ! R97   R(40,91)                1.0986         calculate D2E/DX2 analytically  !
 ! R98   R(41,92)                1.0944         calculate D2E/DX2 analytically  !
 ! R99   R(41,93)                1.0979         calculate D2E/DX2 analytically  !
 ! R100  R(94,95)                1.3675         calculate D2E/DX2 analytically  !
 ! R101  R(94,98)                1.4823         calculate D2E/DX2 analytically  !
 ! R102  R(94,102)               1.089          calculate D2E/DX2 analytically  !
 ! R103  R(95,96)                1.4653         calculate D2E/DX2 analytically  !
 ! R104  R(95,97)                1.4461         calculate D2E/DX2 analytically  !
 ! R105  R(96,99)                1.4359         calculate D2E/DX2 analytically  !
 ! R106  R(96,103)               1.0896         calculate D2E/DX2 analytically  !
 ! R107  R(97,100)               1.3612         calculate D2E/DX2 analytically  !
 ! R108  R(97,104)               1.086          calculate D2E/DX2 analytically  !
 ! R109  R(98,105)               1.0987         calculate D2E/DX2 analytically  !
 ! R110  R(98,106)               1.0929         calculate D2E/DX2 analytically  !
 ! R111  R(98,107)               1.0957         calculate D2E/DX2 analytically  !
 ! R112  R(99,101)               1.3643         calculate D2E/DX2 analytically  !
 ! R113  R(99,108)               1.0875         calculate D2E/DX2 analytically  !
 ! R114  R(100,101)              1.4327         calculate D2E/DX2 analytically  !
 ! R115  R(100,109)              1.0866         calculate D2E/DX2 analytically  !
 ! R116  R(101,110)              1.086          calculate D2E/DX2 analytically  !
 ! A1    A(2,1,3)               86.4808         calculate D2E/DX2 analytically  !
 ! A2    A(2,1,4)               92.0739         calculate D2E/DX2 analytically  !
 ! A3    A(2,1,96)              91.0933         calculate D2E/DX2 analytically  !
 ! A4    A(3,1,5)               93.6564         calculate D2E/DX2 analytically  !
 ! A5    A(3,1,96)              87.4257         calculate D2E/DX2 analytically  !
 ! A6    A(4,1,5)               85.5656         calculate D2E/DX2 analytically  !
 ! A7    A(4,1,96)             101.9649         calculate D2E/DX2 analytically  !
 ! A8    A(5,1,96)             102.4442         calculate D2E/DX2 analytically  !
 ! A9    A(1,2,8)              127.9438         calculate D2E/DX2 analytically  !
 ! A10   A(1,3,9)              128.4092         calculate D2E/DX2 analytically  !
 ! A11   A(1,4,22)             126.9608         calculate D2E/DX2 analytically  !
 ! A12   A(1,4,24)             113.6738         calculate D2E/DX2 analytically  !
 ! A13   A(22,4,24)            118.7172         calculate D2E/DX2 analytically  !
 ! A14   A(1,5,23)             125.9507         calculate D2E/DX2 analytically  !
 ! A15   A(1,5,25)             112.2108         calculate D2E/DX2 analytically  !
 ! A16   A(23,5,25)            121.8333         calculate D2E/DX2 analytically  !
 ! A17   A(8,6,14)             120.1935         calculate D2E/DX2 analytically  !
 ! A18   A(8,6,16)             118.1931         calculate D2E/DX2 analytically  !
 ! A19   A(14,6,16)            121.6123         calculate D2E/DX2 analytically  !
 ! A20   A(9,7,15)             120.1094         calculate D2E/DX2 analytically  !
 ! A21   A(9,7,17)             118.5982         calculate D2E/DX2 analytically  !
 ! A22   A(15,7,17)            121.2803         calculate D2E/DX2 analytically  !
 ! A23   A(2,8,6)              119.5953         calculate D2E/DX2 analytically  !
 ! A24   A(2,8,10)             122.6567         calculate D2E/DX2 analytically  !
 ! A25   A(6,8,10)             117.7421         calculate D2E/DX2 analytically  !
 ! A26   A(3,9,7)              119.5743         calculate D2E/DX2 analytically  !
 ! A27   A(3,9,11)             122.8339         calculate D2E/DX2 analytically  !
 ! A28   A(7,9,11)             117.5914         calculate D2E/DX2 analytically  !
 ! A29   A(8,10,18)            120.7668         calculate D2E/DX2 analytically  !
 ! A30   A(8,10,22)            121.4688         calculate D2E/DX2 analytically  !
 ! A31   A(18,10,22)           117.6734         calculate D2E/DX2 analytically  !
 ! A32   A(9,11,19)            120.4283         calculate D2E/DX2 analytically  !
 ! A33   A(9,11,23)            122.6615         calculate D2E/DX2 analytically  !
 ! A34   A(19,11,23)           116.8942         calculate D2E/DX2 analytically  !
 ! A35   A(16,12,18)           116.8958         calculate D2E/DX2 analytically  !
 ! A36   A(16,12,20)           119.3835         calculate D2E/DX2 analytically  !
 ! A37   A(18,12,20)           123.7207         calculate D2E/DX2 analytically  !
 ! A38   A(17,13,19)           116.5201         calculate D2E/DX2 analytically  !
 ! A39   A(17,13,21)           123.0412         calculate D2E/DX2 analytically  !
 ! A40   A(19,13,21)           120.4331         calculate D2E/DX2 analytically  !
 ! A41   A(6,14,26)            109.3501         calculate D2E/DX2 analytically  !
 ! A42   A(6,14,27)            110.8663         calculate D2E/DX2 analytically  !
 ! A43   A(6,14,28)            112.0111         calculate D2E/DX2 analytically  !
 ! A44   A(26,14,27)           109.776          calculate D2E/DX2 analytically  !
 ! A45   A(26,14,28)           107.4373         calculate D2E/DX2 analytically  !
 ! A46   A(27,14,28)           107.3145         calculate D2E/DX2 analytically  !
 ! A47   A(7,15,29)            109.4773         calculate D2E/DX2 analytically  !
 ! A48   A(7,15,30)            112.1187         calculate D2E/DX2 analytically  !
 ! A49   A(7,15,31)            110.8744         calculate D2E/DX2 analytically  !
 ! A50   A(29,15,30)           107.309          calculate D2E/DX2 analytically  !
 ! A51   A(29,15,31)           109.5216         calculate D2E/DX2 analytically  !
 ! A52   A(30,15,31)           107.4398         calculate D2E/DX2 analytically  !
 ! A53   A(6,16,12)            124.6453         calculate D2E/DX2 analytically  !
 ! A54   A(6,16,42)            118.2244         calculate D2E/DX2 analytically  !
 ! A55   A(12,16,42)           117.13           calculate D2E/DX2 analytically  !
 ! A56   A(7,17,13)            124.4324         calculate D2E/DX2 analytically  !
 ! A57   A(7,17,43)            117.7757         calculate D2E/DX2 analytically  !
 ! A58   A(13,17,43)           117.7908         calculate D2E/DX2 analytically  !
 ! A59   A(10,18,12)           121.7188         calculate D2E/DX2 analytically  !
 ! A60   A(10,18,44)           117.2623         calculate D2E/DX2 analytically  !
 ! A61   A(12,18,44)           121.0107         calculate D2E/DX2 analytically  !
 ! A62   A(11,19,13)           122.3412         calculate D2E/DX2 analytically  !
 ! A63   A(11,19,45)           117.3614         calculate D2E/DX2 analytically  !
 ! A64   A(13,19,45)           120.2963         calculate D2E/DX2 analytically  !
 ! A65   A(12,20,32)           111.8693         calculate D2E/DX2 analytically  !
 ! A66   A(12,20,33)           109.5812         calculate D2E/DX2 analytically  !
 ! A67   A(12,20,34)           109.4773         calculate D2E/DX2 analytically  !
 ! A68   A(32,20,33)           108.31           calculate D2E/DX2 analytically  !
 ! A69   A(32,20,34)           108.6636         calculate D2E/DX2 analytically  !
 ! A70   A(33,20,34)           108.8831         calculate D2E/DX2 analytically  !
 ! A71   A(13,21,35)           109.4962         calculate D2E/DX2 analytically  !
 ! A72   A(13,21,36)           109.5365         calculate D2E/DX2 analytically  !
 ! A73   A(13,21,37)           112.2921         calculate D2E/DX2 analytically  !
 ! A74   A(35,21,36)           108.8192         calculate D2E/DX2 analytically  !
 ! A75   A(35,21,37)           108.2891         calculate D2E/DX2 analytically  !
 ! A76   A(36,21,37)           108.3373         calculate D2E/DX2 analytically  !
 ! A77   A(4,22,10)            125.4436         calculate D2E/DX2 analytically  !
 ! A78   A(4,22,46)            117.8764         calculate D2E/DX2 analytically  !
 ! A79   A(10,22,46)           116.664          calculate D2E/DX2 analytically  !
 ! A80   A(5,23,11)            126.0773         calculate D2E/DX2 analytically  !
 ! A81   A(5,23,47)            118.7581         calculate D2E/DX2 analytically  !
 ! A82   A(11,23,47)           115.1448         calculate D2E/DX2 analytically  !
 ! A83   A(4,24,25)            106.9867         calculate D2E/DX2 analytically  !
 ! A84   A(4,24,38)            109.2641         calculate D2E/DX2 analytically  !
 ! A85   A(4,24,48)            109.8477         calculate D2E/DX2 analytically  !
 ! A86   A(25,24,38)           111.6162         calculate D2E/DX2 analytically  !
 ! A87   A(25,24,48)           109.4411         calculate D2E/DX2 analytically  !
 ! A88   A(38,24,48)           109.6422         calculate D2E/DX2 analytically  !
 ! A89   A(5,25,24)            105.8547         calculate D2E/DX2 analytically  !
 ! A90   A(5,25,39)            117.4314         calculate D2E/DX2 analytically  !
 ! A91   A(5,25,49)            104.7603         calculate D2E/DX2 analytically  !
 ! A92   A(24,25,39)           111.7535         calculate D2E/DX2 analytically  !
 ! A93   A(24,25,49)           107.6984         calculate D2E/DX2 analytically  !
 ! A94   A(39,25,49)           108.762          calculate D2E/DX2 analytically  !
 ! A95   A(14,26,50)           110.3001         calculate D2E/DX2 analytically  !
 ! A96   A(14,26,51)           111.5935         calculate D2E/DX2 analytically  !
 ! A97   A(14,26,52)           110.7195         calculate D2E/DX2 analytically  !
 ! A98   A(50,26,51)           108.232          calculate D2E/DX2 analytically  !
 ! A99   A(50,26,52)           107.5466         calculate D2E/DX2 analytically  !
 ! A100  A(51,26,52)           108.3176         calculate D2E/DX2 analytically  !
 ! A101  A(14,27,53)           110.8632         calculate D2E/DX2 analytically  !
 ! A102  A(14,27,54)           111.7799         calculate D2E/DX2 analytically  !
 ! A103  A(14,27,55)           109.8338         calculate D2E/DX2 analytically  !
 ! A104  A(53,27,54)           108.5585         calculate D2E/DX2 analytically  !
 ! A105  A(53,27,55)           107.3105         calculate D2E/DX2 analytically  !
 ! A106  A(54,27,55)           108.3559         calculate D2E/DX2 analytically  !
 ! A107  A(14,28,56)           109.2773         calculate D2E/DX2 analytically  !
 ! A108  A(14,28,57)           112.374          calculate D2E/DX2 analytically  !
 ! A109  A(14,28,58)           112.2704         calculate D2E/DX2 analytically  !
 ! A110  A(56,28,57)           107.3122         calculate D2E/DX2 analytically  !
 ! A111  A(56,28,58)           107.3879         calculate D2E/DX2 analytically  !
 ! A112  A(57,28,58)           107.9813         calculate D2E/DX2 analytically  !
 ! A113  A(15,29,59)           110.3004         calculate D2E/DX2 analytically  !
 ! A114  A(15,29,60)           111.6406         calculate D2E/DX2 analytically  !
 ! A115  A(15,29,61)           110.8521         calculate D2E/DX2 analytically  !
 ! A116  A(59,29,60)           108.1181         calculate D2E/DX2 analytically  !
 ! A117  A(59,29,61)           107.5276         calculate D2E/DX2 analytically  !
 ! A118  A(60,29,61)           108.2616         calculate D2E/DX2 analytically  !
 ! A119  A(15,30,62)           109.2669         calculate D2E/DX2 analytically  !
 ! A120  A(15,30,63)           112.4117         calculate D2E/DX2 analytically  !
 ! A121  A(15,30,64)           112.2806         calculate D2E/DX2 analytically  !
 ! A122  A(62,30,63)           107.3309         calculate D2E/DX2 analytically  !
 ! A123  A(62,30,64)           107.3621         calculate D2E/DX2 analytically  !
 ! A124  A(63,30,64)           107.9487         calculate D2E/DX2 analytically  !
 ! A125  A(15,31,65)           110.9327         calculate D2E/DX2 analytically  !
 ! A126  A(15,31,66)           111.3376         calculate D2E/DX2 analytically  !
 ! A127  A(15,31,67)           109.9953         calculate D2E/DX2 analytically  !
 ! A128  A(65,31,66)           108.4275         calculate D2E/DX2 analytically  !
 ! A129  A(65,31,67)           107.4411         calculate D2E/DX2 analytically  !
 ! A130  A(66,31,67)           108.5901         calculate D2E/DX2 analytically  !
 ! A131  A(20,32,68)           109.922          calculate D2E/DX2 analytically  !
 ! A132  A(20,32,69)           112.0614         calculate D2E/DX2 analytically  !
 ! A133  A(20,32,70)           111.7792         calculate D2E/DX2 analytically  !
 ! A134  A(68,32,69)           107.4474         calculate D2E/DX2 analytically  !
 ! A135  A(68,32,70)           107.525          calculate D2E/DX2 analytically  !
 ! A136  A(69,32,70)           107.9025         calculate D2E/DX2 analytically  !
 ! A137  A(20,33,71)           110.4431         calculate D2E/DX2 analytically  !
 ! A138  A(20,33,72)           111.2503         calculate D2E/DX2 analytically  !
 ! A139  A(20,33,73)           111.9736         calculate D2E/DX2 analytically  !
 ! A140  A(71,33,72)           107.7425         calculate D2E/DX2 analytically  !
 ! A141  A(71,33,73)           107.4601         calculate D2E/DX2 analytically  !
 ! A142  A(72,33,73)           107.7866         calculate D2E/DX2 analytically  !
 ! A143  A(20,34,74)           111.7102         calculate D2E/DX2 analytically  !
 ! A144  A(20,34,75)           111.2092         calculate D2E/DX2 analytically  !
 ! A145  A(20,34,76)           110.6097         calculate D2E/DX2 analytically  !
 ! A146  A(74,34,75)           107.76           calculate D2E/DX2 analytically  !
 ! A147  A(74,34,76)           107.5529         calculate D2E/DX2 analytically  !
 ! A148  A(75,34,76)           107.8257         calculate D2E/DX2 analytically  !
 ! A149  A(21,35,77)           110.6607         calculate D2E/DX2 analytically  !
 ! A150  A(21,35,78)           111.7175         calculate D2E/DX2 analytically  !
 ! A151  A(21,35,79)           111.2375         calculate D2E/DX2 analytically  !
 ! A152  A(77,35,78)           107.5415         calculate D2E/DX2 analytically  !
 ! A153  A(77,35,79)           107.7671         calculate D2E/DX2 analytically  !
 ! A154  A(78,35,79)           107.7381         calculate D2E/DX2 analytically  !
 ! A155  A(21,36,80)           111.2131         calculate D2E/DX2 analytically  !
 ! A156  A(21,36,81)           111.6637         calculate D2E/DX2 analytically  !
 ! A157  A(21,36,82)           110.6906         calculate D2E/DX2 analytically  !
 ! A158  A(80,36,81)           107.7511         calculate D2E/DX2 analytically  !
 ! A159  A(80,36,82)           107.7815         calculate D2E/DX2 analytically  !
 ! A160  A(81,36,82)           107.5657         calculate D2E/DX2 analytically  !
 ! A161  A(21,37,83)           109.7511         calculate D2E/DX2 analytically  !
 ! A162  A(21,37,84)           112.0464         calculate D2E/DX2 analytically  !
 ! A163  A(21,37,85)           112.0936         calculate D2E/DX2 analytically  !
 ! A164  A(83,37,84)           107.4421         calculate D2E/DX2 analytically  !
 ! A165  A(83,37,85)           107.3923         calculate D2E/DX2 analytically  !
 ! A166  A(84,37,85)           107.8975         calculate D2E/DX2 analytically  !
 ! A167  A(24,38,40)           111.8873         calculate D2E/DX2 analytically  !
 ! A168  A(24,38,86)           108.121          calculate D2E/DX2 analytically  !
 ! A169  A(24,38,87)           108.8868         calculate D2E/DX2 analytically  !
 ! A170  A(40,38,86)           109.7323         calculate D2E/DX2 analytically  !
 ! A171  A(40,38,87)           111.4278         calculate D2E/DX2 analytically  !
 ! A172  A(86,38,87)           106.5926         calculate D2E/DX2 analytically  !
 ! A173  A(25,39,41)           113.2482         calculate D2E/DX2 analytically  !
 ! A174  A(25,39,88)           106.3371         calculate D2E/DX2 analytically  !
 ! A175  A(25,39,89)           110.5525         calculate D2E/DX2 analytically  !
 ! A176  A(41,39,88)           108.9918         calculate D2E/DX2 analytically  !
 ! A177  A(41,39,89)           111.8024         calculate D2E/DX2 analytically  !
 ! A178  A(88,39,89)           105.4478         calculate D2E/DX2 analytically  !
 ! A179  A(38,40,41)           110.7329         calculate D2E/DX2 analytically  !
 ! A180  A(38,40,90)           109.8706         calculate D2E/DX2 analytically  !
 ! A181  A(38,40,91)           109.5149         calculate D2E/DX2 analytically  !
 ! A182  A(41,40,90)           110.7612         calculate D2E/DX2 analytically  !
 ! A183  A(41,40,91)           109.3814         calculate D2E/DX2 analytically  !
 ! A184  A(90,40,91)           106.4812         calculate D2E/DX2 analytically  !
 ! A185  A(39,41,40)           110.44           calculate D2E/DX2 analytically  !
 ! A186  A(39,41,92)           109.7603         calculate D2E/DX2 analytically  !
 ! A187  A(39,41,93)           110.203          calculate D2E/DX2 analytically  !
 ! A188  A(40,41,92)           110.7232         calculate D2E/DX2 analytically  !
 ! A189  A(40,41,93)           109.2791         calculate D2E/DX2 analytically  !
 ! A190  A(92,41,93)           106.3551         calculate D2E/DX2 analytically  !
 ! A191  A(95,94,98)           127.236          calculate D2E/DX2 analytically  !
 ! A192  A(95,94,102)          116.6178         calculate D2E/DX2 analytically  !
 ! A193  A(98,94,102)          116.1081         calculate D2E/DX2 analytically  !
 ! A194  A(94,95,96)           120.3883         calculate D2E/DX2 analytically  !
 ! A195  A(94,95,97)           122.8235         calculate D2E/DX2 analytically  !
 ! A196  A(96,95,97)           116.6831         calculate D2E/DX2 analytically  !
 ! A197  A(1,96,95)            111.8121         calculate D2E/DX2 analytically  !
 ! A198  A(1,96,99)            101.9254         calculate D2E/DX2 analytically  !
 ! A199  A(1,96,103)            89.6207         calculate D2E/DX2 analytically  !
 ! A200  A(95,96,99)           117.1805         calculate D2E/DX2 analytically  !
 ! A201  A(95,96,103)          114.9516         calculate D2E/DX2 analytically  !
 ! A202  A(99,96,103)          116.6258         calculate D2E/DX2 analytically  !
 ! A203  A(95,97,100)          120.497          calculate D2E/DX2 analytically  !
 ! A204  A(95,97,104)          119.4088         calculate D2E/DX2 analytically  !
 ! A205  A(100,97,104)         119.8489         calculate D2E/DX2 analytically  !
 ! A206  A(94,98,105)          111.4449         calculate D2E/DX2 analytically  !
 ! A207  A(94,98,106)          113.3426         calculate D2E/DX2 analytically  !
 ! A208  A(94,98,107)          110.6262         calculate D2E/DX2 analytically  !
 ! A209  A(105,98,106)         107.197          calculate D2E/DX2 analytically  !
 ! A210  A(105,98,107)         105.8495         calculate D2E/DX2 analytically  !
 ! A211  A(106,98,107)         108.0194         calculate D2E/DX2 analytically  !
 ! A212  A(96,99,101)          121.1617         calculate D2E/DX2 analytically  !
 ! A213  A(96,99,108)          118.3426         calculate D2E/DX2 analytically  !
 ! A214  A(101,99,108)         120.4307         calculate D2E/DX2 analytically  !
 ! A215  A(97,100,101)         120.988          calculate D2E/DX2 analytically  !
 ! A216  A(97,100,109)         119.903          calculate D2E/DX2 analytically  !
 ! A217  A(101,100,109)        119.094          calculate D2E/DX2 analytically  !
 ! A218  A(99,101,100)         119.8786         calculate D2E/DX2 analytically  !
 ! A219  A(99,101,110)         120.5981         calculate D2E/DX2 analytically  !
 ! A220  A(100,101,110)        119.4939         calculate D2E/DX2 analytically  !
 ! A221  L(2,1,5,3,-1)         180.1372         calculate D2E/DX2 analytically  !
 ! A222  L(3,1,4,2,-1)         178.5547         calculate D2E/DX2 analytically  !
 ! A223  L(2,1,5,3,-2)         193.5691         calculate D2E/DX2 analytically  !
 ! A224  L(3,1,4,2,-2)         170.6314         calculate D2E/DX2 analytically  !
 ! D1    D(3,1,2,8)           -169.2087         calculate D2E/DX2 analytically  !
 ! D2    D(4,1,2,8)             20.1599         calculate D2E/DX2 analytically  !
 ! D3    D(96,1,2,8)           -81.8557         calculate D2E/DX2 analytically  !
 ! D4    D(2,1,3,9)           -164.1739         calculate D2E/DX2 analytically  !
 ! D5    D(5,1,3,9)              2.2569         calculate D2E/DX2 analytically  !
 ! D6    D(96,1,3,9)           104.5711         calculate D2E/DX2 analytically  !
 ! D7    D(2,1,4,22)           -12.647          calculate D2E/DX2 analytically  !
 ! D8    D(2,1,4,24)           157.922          calculate D2E/DX2 analytically  !
 ! D9    D(5,1,4,22)          -179.2886         calculate D2E/DX2 analytically  !
 ! D10   D(5,1,4,24)            -8.7196         calculate D2E/DX2 analytically  !
 ! D11   D(96,1,4,22)           78.9112         calculate D2E/DX2 analytically  !
 ! D12   D(96,1,4,24)         -110.5199         calculate D2E/DX2 analytically  !
 ! D13   D(3,1,5,23)            -6.3621         calculate D2E/DX2 analytically  !
 ! D14   D(3,1,5,25)           172.8203         calculate D2E/DX2 analytically  !
 ! D15   D(4,1,5,23)           164.1781         calculate D2E/DX2 analytically  !
 ! D16   D(4,1,5,25)           -16.6395         calculate D2E/DX2 analytically  !
 ! D17   D(96,1,5,23)          -94.529          calculate D2E/DX2 analytically  !
 ! D18   D(96,1,5,25)           84.6534         calculate D2E/DX2 analytically  !
 ! D19   D(2,1,96,95)           73.6724         calculate D2E/DX2 analytically  !
 ! D20   D(2,1,96,99)         -160.355          calculate D2E/DX2 analytically  !
 ! D21   D(2,1,96,103)         -43.1832         calculate D2E/DX2 analytically  !
 ! D22   D(3,1,96,95)          160.0997         calculate D2E/DX2 analytically  !
 ! D23   D(3,1,96,99)          -73.9277         calculate D2E/DX2 analytically  !
 ! D24   D(3,1,96,103)          43.2441         calculate D2E/DX2 analytically  !
 ! D25   D(4,1,96,95)          -18.6798         calculate D2E/DX2 analytically  !
 ! D26   D(4,1,96,99)          107.2927         calculate D2E/DX2 analytically  !
 ! D27   D(4,1,96,103)        -135.5355         calculate D2E/DX2 analytically  !
 ! D28   D(5,1,96,95)         -106.7215         calculate D2E/DX2 analytically  !
 ! D29   D(5,1,96,99)           19.2511         calculate D2E/DX2 analytically  !
 ! D30   D(5,1,96,103)         136.4229         calculate D2E/DX2 analytically  !
 ! D31   D(1,2,8,6)            165.806          calculate D2E/DX2 analytically  !
 ! D32   D(1,2,8,10)           -15.0964         calculate D2E/DX2 analytically  !
 ! D33   D(1,3,9,7)           -177.7174         calculate D2E/DX2 analytically  !
 ! D34   D(1,3,9,11)             2.4837         calculate D2E/DX2 analytically  !
 ! D35   D(1,4,22,10)            0.571          calculate D2E/DX2 analytically  !
 ! D36   D(1,4,22,46)          179.0627         calculate D2E/DX2 analytically  !
 ! D37   D(24,4,22,10)        -169.5761         calculate D2E/DX2 analytically  !
 ! D38   D(24,4,22,46)           8.9155         calculate D2E/DX2 analytically  !
 ! D39   D(1,4,24,25)           30.5871         calculate D2E/DX2 analytically  !
 ! D40   D(1,4,24,38)          -90.3972         calculate D2E/DX2 analytically  !
 ! D41   D(1,4,24,48)          149.2898         calculate D2E/DX2 analytically  !
 ! D42   D(22,4,24,25)        -157.999          calculate D2E/DX2 analytically  !
 ! D43   D(22,4,24,38)          81.0168         calculate D2E/DX2 analytically  !
 ! D44   D(22,4,24,48)         -39.2962         calculate D2E/DX2 analytically  !
 ! D45   D(1,5,23,11)            6.0447         calculate D2E/DX2 analytically  !
 ! D46   D(1,5,23,47)         -175.6584         calculate D2E/DX2 analytically  !
 ! D47   D(25,5,23,11)        -173.0644         calculate D2E/DX2 analytically  !
 ! D48   D(25,5,23,47)           5.2326         calculate D2E/DX2 analytically  !
 ! D49   D(1,5,25,24)           36.3745         calculate D2E/DX2 analytically  !
 ! D50   D(1,5,25,39)          161.9297         calculate D2E/DX2 analytically  !
 ! D51   D(1,5,25,49)          -77.3062         calculate D2E/DX2 analytically  !
 ! D52   D(23,5,25,24)        -144.4046         calculate D2E/DX2 analytically  !
 ! D53   D(23,5,25,39)         -18.8494         calculate D2E/DX2 analytically  !
 ! D54   D(23,5,25,49)         101.9147         calculate D2E/DX2 analytically  !
 ! D55   D(14,6,8,2)             1.234          calculate D2E/DX2 analytically  !
 ! D56   D(14,6,8,10)         -177.9076         calculate D2E/DX2 analytically  !
 ! D57   D(16,6,8,2)          -179.1468         calculate D2E/DX2 analytically  !
 ! D58   D(16,6,8,10)            1.7116         calculate D2E/DX2 analytically  !
 ! D59   D(8,6,14,26)           62.8238         calculate D2E/DX2 analytically  !
 ! D60   D(8,6,14,27)          -58.35           calculate D2E/DX2 analytically  !
 ! D61   D(8,6,14,28)         -178.1942         calculate D2E/DX2 analytically  !
 ! D62   D(16,6,14,26)        -116.7821         calculate D2E/DX2 analytically  !
 ! D63   D(16,6,14,27)         122.0442         calculate D2E/DX2 analytically  !
 ! D64   D(16,6,14,28)           2.2            calculate D2E/DX2 analytically  !
 ! D65   D(8,6,16,12)           -1.1485         calculate D2E/DX2 analytically  !
 ! D66   D(8,6,16,42)          179.0633         calculate D2E/DX2 analytically  !
 ! D67   D(14,6,16,12)         178.4649         calculate D2E/DX2 analytically  !
 ! D68   D(14,6,16,42)          -1.3232         calculate D2E/DX2 analytically  !
 ! D69   D(15,7,9,3)             4.5866         calculate D2E/DX2 analytically  !
 ! D70   D(15,7,9,11)         -175.6041         calculate D2E/DX2 analytically  !
 ! D71   D(17,7,9,3)          -176.6591         calculate D2E/DX2 analytically  !
 ! D72   D(17,7,9,11)            3.1502         calculate D2E/DX2 analytically  !
 ! D73   D(9,7,15,29)           60.974          calculate D2E/DX2 analytically  !
 ! D74   D(9,7,15,30)          179.9471         calculate D2E/DX2 analytically  !
 ! D75   D(9,7,15,31)          -59.9712         calculate D2E/DX2 analytically  !
 ! D76   D(17,7,15,29)        -117.7463         calculate D2E/DX2 analytically  !
 ! D77   D(17,7,15,30)           1.2269         calculate D2E/DX2 analytically  !
 ! D78   D(17,7,15,31)         121.3085         calculate D2E/DX2 analytically  !
 ! D79   D(9,7,17,13)           -1.0922         calculate D2E/DX2 analytically  !
 ! D80   D(9,7,17,43)          179.3004         calculate D2E/DX2 analytically  !
 ! D81   D(15,7,17,13)         177.6469         calculate D2E/DX2 analytically  !
 ! D82   D(15,7,17,43)          -1.9604         calculate D2E/DX2 analytically  !
 ! D83   D(2,8,10,18)         -179.7086         calculate D2E/DX2 analytically  !
 ! D84   D(2,8,10,22)           -3.2589         calculate D2E/DX2 analytically  !
 ! D85   D(6,8,10,18)           -0.5952         calculate D2E/DX2 analytically  !
 ! D86   D(6,8,10,22)          175.8545         calculate D2E/DX2 analytically  !
 ! D87   D(3,9,11,19)          176.7598         calculate D2E/DX2 analytically  !
 ! D88   D(3,9,11,23)           -4.7376         calculate D2E/DX2 analytically  !
 ! D89   D(7,9,11,19)           -3.0428         calculate D2E/DX2 analytically  !
 ! D90   D(7,9,11,23)          175.4598         calculate D2E/DX2 analytically  !
 ! D91   D(8,10,18,12)          -1.243          calculate D2E/DX2 analytically  !
 ! D92   D(8,10,18,44)         179.7875         calculate D2E/DX2 analytically  !
 ! D93   D(22,10,18,12)       -177.8239         calculate D2E/DX2 analytically  !
 ! D94   D(22,10,18,44)          3.2066         calculate D2E/DX2 analytically  !
 ! D95   D(8,10,22,4)           10.911          calculate D2E/DX2 analytically  !
 ! D96   D(8,10,22,46)        -167.5971         calculate D2E/DX2 analytically  !
 ! D97   D(18,10,22,4)        -172.5335         calculate D2E/DX2 analytically  !
 ! D98   D(18,10,22,46)          8.9584         calculate D2E/DX2 analytically  !
 ! D99   D(9,11,19,13)           0.7743         calculate D2E/DX2 analytically  !
 ! D100  D(9,11,19,45)        -179.6138         calculate D2E/DX2 analytically  !
 ! D101  D(23,11,19,13)       -177.8121         calculate D2E/DX2 analytically  !
 ! D102  D(23,11,19,45)          1.7997         calculate D2E/DX2 analytically  !
 ! D103  D(9,11,23,5)            0.2657         calculate D2E/DX2 analytically  !
 ! D104  D(9,11,23,47)        -178.0851         calculate D2E/DX2 analytically  !
 ! D105  D(19,11,23,5)         178.8179         calculate D2E/DX2 analytically  !
 ! D106  D(19,11,23,47)          0.4672         calculate D2E/DX2 analytically  !
 ! D107  D(18,12,16,6)          -0.6369         calculate D2E/DX2 analytically  !
 ! D108  D(18,12,16,42)        179.1533         calculate D2E/DX2 analytically  !
 ! D109  D(20,12,16,6)         179.3941         calculate D2E/DX2 analytically  !
 ! D110  D(20,12,16,42)         -0.8157         calculate D2E/DX2 analytically  !
 ! D111  D(16,12,18,10)          1.8315         calculate D2E/DX2 analytically  !
 ! D112  D(16,12,18,44)       -179.2374         calculate D2E/DX2 analytically  !
 ! D113  D(20,12,18,10)       -178.201          calculate D2E/DX2 analytically  !
 ! D114  D(20,12,18,44)          0.7302         calculate D2E/DX2 analytically  !
 ! D115  D(16,12,20,32)       -177.3956         calculate D2E/DX2 analytically  !
 ! D116  D(16,12,20,33)        -57.2584         calculate D2E/DX2 analytically  !
 ! D117  D(16,12,20,34)         62.0928         calculate D2E/DX2 analytically  !
 ! D118  D(18,12,20,32)          2.6376         calculate D2E/DX2 analytically  !
 ! D119  D(18,12,20,33)        122.7748         calculate D2E/DX2 analytically  !
 ! D120  D(18,12,20,34)       -117.874          calculate D2E/DX2 analytically  !
 ! D121  D(19,13,17,7)          -1.2007         calculate D2E/DX2 analytically  !
 ! D122  D(19,13,17,43)        178.4065         calculate D2E/DX2 analytically  !
 ! D123  D(21,13,17,7)         179.6601         calculate D2E/DX2 analytically  !
 ! D124  D(21,13,17,43)         -0.7326         calculate D2E/DX2 analytically  !
 ! D125  D(17,13,19,11)          1.351          calculate D2E/DX2 analytically  !
 ! D126  D(17,13,19,45)       -178.2497         calculate D2E/DX2 analytically  !
 ! D127  D(21,13,19,11)       -179.4859         calculate D2E/DX2 analytically  !
 ! D128  D(21,13,19,45)          0.9133         calculate D2E/DX2 analytically  !
 ! D129  D(17,13,21,35)       -121.5906         calculate D2E/DX2 analytically  !
 ! D130  D(17,13,21,36)        119.1518         calculate D2E/DX2 analytically  !
 ! D131  D(17,13,21,37)         -1.2635         calculate D2E/DX2 analytically  !
 ! D132  D(19,13,21,35)         59.3028         calculate D2E/DX2 analytically  !
 ! D133  D(19,13,21,36)        -59.9548         calculate D2E/DX2 analytically  !
 ! D134  D(19,13,21,37)        179.6299         calculate D2E/DX2 analytically  !
 ! D135  D(6,14,26,50)        -179.7357         calculate D2E/DX2 analytically  !
 ! D136  D(6,14,26,51)         -59.3928         calculate D2E/DX2 analytically  !
 ! D137  D(6,14,26,52)          61.3438         calculate D2E/DX2 analytically  !
 ! D138  D(27,14,26,50)        -57.9031         calculate D2E/DX2 analytically  !
 ! D139  D(27,14,26,51)         62.4398         calculate D2E/DX2 analytically  !
 ! D140  D(27,14,26,52)       -176.8236         calculate D2E/DX2 analytically  !
 ! D141  D(28,14,26,50)         58.4842         calculate D2E/DX2 analytically  !
 ! D142  D(28,14,26,51)        178.8271         calculate D2E/DX2 analytically  !
 ! D143  D(28,14,26,52)        -60.4364         calculate D2E/DX2 analytically  !
 ! D144  D(6,14,27,53)         -60.4035         calculate D2E/DX2 analytically  !
 ! D145  D(6,14,27,54)          60.8666         calculate D2E/DX2 analytically  !
 ! D146  D(6,14,27,55)        -178.8265         calculate D2E/DX2 analytically  !
 ! D147  D(26,14,27,53)        178.6742         calculate D2E/DX2 analytically  !
 ! D148  D(26,14,27,54)        -60.0557         calculate D2E/DX2 analytically  !
 ! D149  D(26,14,27,55)         60.2511         calculate D2E/DX2 analytically  !
 ! D150  D(28,14,27,53)         62.2096         calculate D2E/DX2 analytically  !
 ! D151  D(28,14,27,54)       -176.5203         calculate D2E/DX2 analytically  !
 ! D152  D(28,14,27,55)        -56.2134         calculate D2E/DX2 analytically  !
 ! D153  D(6,14,28,56)        -179.9934         calculate D2E/DX2 analytically  !
 ! D154  D(6,14,28,57)         -60.9881         calculate D2E/DX2 analytically  !
 ! D155  D(6,14,28,58)          60.9718         calculate D2E/DX2 analytically  !
 ! D156  D(26,14,28,56)        -59.889          calculate D2E/DX2 analytically  !
 ! D157  D(26,14,28,57)         59.1163         calculate D2E/DX2 analytically  !
 ! D158  D(26,14,28,58)       -178.9238         calculate D2E/DX2 analytically  !
 ! D159  D(27,14,28,56)         58.1058         calculate D2E/DX2 analytically  !
 ! D160  D(27,14,28,57)        177.1111         calculate D2E/DX2 analytically  !
 ! D161  D(27,14,28,58)        -60.929          calculate D2E/DX2 analytically  !
 ! D162  D(7,15,29,59)         179.5109         calculate D2E/DX2 analytically  !
 ! D163  D(7,15,29,60)         -60.2585         calculate D2E/DX2 analytically  !
 ! D164  D(7,15,29,61)          60.5299         calculate D2E/DX2 analytically  !
 ! D165  D(30,15,29,59)         57.6039         calculate D2E/DX2 analytically  !
 ! D166  D(30,15,29,60)        177.8344         calculate D2E/DX2 analytically  !
 ! D167  D(30,15,29,61)        -61.3771         calculate D2E/DX2 analytically  !
 ! D168  D(31,15,29,59)        -58.7271         calculate D2E/DX2 analytically  !
 ! D169  D(31,15,29,60)         61.5035         calculate D2E/DX2 analytically  !
 ! D170  D(31,15,29,61)       -177.7081         calculate D2E/DX2 analytically  !
 ! D171  D(7,15,30,62)        -179.6787         calculate D2E/DX2 analytically  !
 ! D172  D(7,15,30,63)         -60.6333         calculate D2E/DX2 analytically  !
 ! D173  D(7,15,30,64)          61.3192         calculate D2E/DX2 analytically  !
 ! D174  D(29,15,30,62)        -59.4367         calculate D2E/DX2 analytically  !
 ! D175  D(29,15,30,63)         59.6087         calculate D2E/DX2 analytically  !
 ! D176  D(29,15,30,64)       -178.4387         calculate D2E/DX2 analytically  !
 ! D177  D(31,15,30,62)         58.2591         calculate D2E/DX2 analytically  !
 ! D178  D(31,15,30,63)        177.3045         calculate D2E/DX2 analytically  !
 ! D179  D(31,15,30,64)        -60.743          calculate D2E/DX2 analytically  !
 ! D180  D(7,15,31,65)         -59.6964         calculate D2E/DX2 analytically  !
 ! D181  D(7,15,31,66)          61.1524         calculate D2E/DX2 analytically  !
 ! D182  D(7,15,31,67)        -178.4261         calculate D2E/DX2 analytically  !
 ! D183  D(29,15,31,65)        179.3846         calculate D2E/DX2 analytically  !
 ! D184  D(29,15,31,66)        -59.7665         calculate D2E/DX2 analytically  !
 ! D185  D(29,15,31,67)         60.6549         calculate D2E/DX2 analytically  !
 ! D186  D(30,15,31,65)         63.1366         calculate D2E/DX2 analytically  !
 ! D187  D(30,15,31,66)       -176.0146         calculate D2E/DX2 analytically  !
 ! D188  D(30,15,31,67)        -55.5932         calculate D2E/DX2 analytically  !
 ! D189  D(12,20,32,68)        179.1671         calculate D2E/DX2 analytically  !
 ! D190  D(12,20,32,69)        -61.427          calculate D2E/DX2 analytically  !
 ! D191  D(12,20,32,70)         59.8452         calculate D2E/DX2 analytically  !
 ! D192  D(33,20,32,68)         58.2893         calculate D2E/DX2 analytically  !
 ! D193  D(33,20,32,69)        177.6951         calculate D2E/DX2 analytically  !
 ! D194  D(33,20,32,70)        -61.0327         calculate D2E/DX2 analytically  !
 ! D195  D(34,20,32,68)        -59.8484         calculate D2E/DX2 analytically  !
 ! D196  D(34,20,32,69)         59.5574         calculate D2E/DX2 analytically  !
 ! D197  D(34,20,32,70)       -179.1703         calculate D2E/DX2 analytically  !
 ! D198  D(12,20,33,71)        179.2906         calculate D2E/DX2 analytically  !
 ! D199  D(12,20,33,72)        -61.1117         calculate D2E/DX2 analytically  !
 ! D200  D(12,20,33,73)         59.5751         calculate D2E/DX2 analytically  !
 ! D201  D(32,20,33,71)        -58.4231         calculate D2E/DX2 analytically  !
 ! D202  D(32,20,33,72)         61.1745         calculate D2E/DX2 analytically  !
 ! D203  D(32,20,33,73)       -178.1387         calculate D2E/DX2 analytically  !
 ! D204  D(34,20,33,71)         59.5746         calculate D2E/DX2 analytically  !
 ! D205  D(34,20,33,72)        179.1723         calculate D2E/DX2 analytically  !
 ! D206  D(34,20,33,73)        -60.141          calculate D2E/DX2 analytically  !
 ! D207  D(12,20,34,74)        -59.4601         calculate D2E/DX2 analytically  !
 ! D208  D(12,20,34,75)         60.983          calculate D2E/DX2 analytically  !
 ! D209  D(12,20,34,76)       -179.2316         calculate D2E/DX2 analytically  !
 ! D210  D(32,20,34,74)        178.0947         calculate D2E/DX2 analytically  !
 ! D211  D(32,20,34,75)        -61.4622         calculate D2E/DX2 analytically  !
 ! D212  D(32,20,34,76)         58.3233         calculate D2E/DX2 analytically  !
 ! D213  D(33,20,34,74)         60.3204         calculate D2E/DX2 analytically  !
 ! D214  D(33,20,34,75)       -179.2365         calculate D2E/DX2 analytically  !
 ! D215  D(33,20,34,76)        -59.4511         calculate D2E/DX2 analytically  !
 ! D216  D(13,21,35,77)       -179.532          calculate D2E/DX2 analytically  !
 ! D217  D(13,21,35,78)        -59.7357         calculate D2E/DX2 analytically  !
 ! D218  D(13,21,35,79)         60.7039         calculate D2E/DX2 analytically  !
 ! D219  D(36,21,35,77)        -59.8331         calculate D2E/DX2 analytically  !
 ! D220  D(36,21,35,78)         59.9632         calculate D2E/DX2 analytically  !
 ! D221  D(36,21,35,79)       -179.5972         calculate D2E/DX2 analytically  !
 ! D222  D(37,21,35,77)         57.7284         calculate D2E/DX2 analytically  !
 ! D223  D(37,21,35,78)        177.5246         calculate D2E/DX2 analytically  !
 ! D224  D(37,21,35,79)        -62.0358         calculate D2E/DX2 analytically  !
 ! D225  D(13,21,36,80)        -60.739          calculate D2E/DX2 analytically  !
 ! D226  D(13,21,36,81)         59.6635         calculate D2E/DX2 analytically  !
 ! D227  D(13,21,36,82)        179.4749         calculate D2E/DX2 analytically  !
 ! D228  D(35,21,36,80)        179.5872         calculate D2E/DX2 analytically  !
 ! D229  D(35,21,36,81)        -60.0103         calculate D2E/DX2 analytically  !
 ! D230  D(35,21,36,82)         59.8011         calculate D2E/DX2 analytically  !
 ! D231  D(37,21,36,80)         62.0563         calculate D2E/DX2 analytically  !
 ! D232  D(37,21,36,81)       -177.5412         calculate D2E/DX2 analytically  !
 ! D233  D(37,21,36,82)        -57.7298         calculate D2E/DX2 analytically  !
 ! D234  D(13,21,37,83)       -179.4764         calculate D2E/DX2 analytically  !
 ! D235  D(13,21,37,84)        -60.201          calculate D2E/DX2 analytically  !
 ! D236  D(13,21,37,85)         61.2804         calculate D2E/DX2 analytically  !
 ! D237  D(35,21,37,83)        -58.4529         calculate D2E/DX2 analytically  !
 ! D238  D(35,21,37,84)         60.8225         calculate D2E/DX2 analytically  !
 ! D239  D(35,21,37,85)       -177.6961         calculate D2E/DX2 analytically  !
 ! D240  D(36,21,37,83)         59.4169         calculate D2E/DX2 analytically  !
 ! D241  D(36,21,37,84)        178.6923         calculate D2E/DX2 analytically  !
 ! D242  D(36,21,37,85)        -59.8263         calculate D2E/DX2 analytically  !
 ! D243  D(4,24,25,5)          -41.5089         calculate D2E/DX2 analytically  !
 ! D244  D(4,24,25,39)        -170.4815         calculate D2E/DX2 analytically  !
 ! D245  D(4,24,25,49)          70.1228         calculate D2E/DX2 analytically  !
 ! D246  D(38,24,25,5)          77.971          calculate D2E/DX2 analytically  !
 ! D247  D(38,24,25,39)        -51.0017         calculate D2E/DX2 analytically  !
 ! D248  D(38,24,25,49)       -170.3974         calculate D2E/DX2 analytically  !
 ! D249  D(48,24,25,5)        -160.4752         calculate D2E/DX2 analytically  !
 ! D250  D(48,24,25,39)         70.5521         calculate D2E/DX2 analytically  !
 ! D251  D(48,24,25,49)        -48.8436         calculate D2E/DX2 analytically  !
 ! D252  D(4,24,38,40)         172.3624         calculate D2E/DX2 analytically  !
 ! D253  D(4,24,38,86)          51.4108         calculate D2E/DX2 analytically  !
 ! D254  D(4,24,38,87)         -64.0266         calculate D2E/DX2 analytically  !
 ! D255  D(25,24,38,40)         54.2386         calculate D2E/DX2 analytically  !
 ! D256  D(25,24,38,86)        -66.7129         calculate D2E/DX2 analytically  !
 ! D257  D(25,24,38,87)        177.8497         calculate D2E/DX2 analytically  !
 ! D258  D(48,24,38,40)        -67.1988         calculate D2E/DX2 analytically  !
 ! D259  D(48,24,38,86)        171.8497         calculate D2E/DX2 analytically  !
 ! D260  D(48,24,38,87)         56.4123         calculate D2E/DX2 analytically  !
 ! D261  D(5,25,39,41)         -70.5183         calculate D2E/DX2 analytically  !
 ! D262  D(5,25,39,88)         169.8106         calculate D2E/DX2 analytically  !
 ! D263  D(5,25,39,89)          55.8358         calculate D2E/DX2 analytically  !
 ! D264  D(24,25,39,41)         52.0649         calculate D2E/DX2 analytically  !
 ! D265  D(24,25,39,88)        -67.6062         calculate D2E/DX2 analytically  !
 ! D266  D(24,25,39,89)        178.4189         calculate D2E/DX2 analytically  !
 ! D267  D(49,25,39,41)        170.8306         calculate D2E/DX2 analytically  !
 ! D268  D(49,25,39,88)         51.1595         calculate D2E/DX2 analytically  !
 ! D269  D(49,25,39,89)        -62.8153         calculate D2E/DX2 analytically  !
 ! D270  D(24,38,40,41)        -57.0942         calculate D2E/DX2 analytically  !
 ! D271  D(24,38,40,90)       -179.7654         calculate D2E/DX2 analytically  !
 ! D272  D(24,38,40,91)         63.6104         calculate D2E/DX2 analytically  !
 ! D273  D(86,38,40,41)         62.9186         calculate D2E/DX2 analytically  !
 ! D274  D(86,38,40,90)        -59.7526         calculate D2E/DX2 analytically  !
 ! D275  D(86,38,40,91)       -176.3767         calculate D2E/DX2 analytically  !
 ! D276  D(87,38,40,41)       -179.2627         calculate D2E/DX2 analytically  !
 ! D277  D(87,38,40,90)         58.066          calculate D2E/DX2 analytically  !
 ! D278  D(87,38,40,91)        -58.5581         calculate D2E/DX2 analytically  !
 ! D279  D(25,39,41,40)        -54.6587         calculate D2E/DX2 analytically  !
 ! D280  D(25,39,41,92)       -177.0124         calculate D2E/DX2 analytically  !
 ! D281  D(25,39,41,93)         66.1784         calculate D2E/DX2 analytically  !
 ! D282  D(88,39,41,40)         63.481          calculate D2E/DX2 analytically  !
 ! D283  D(88,39,41,92)        -58.8727         calculate D2E/DX2 analytically  !
 ! D284  D(88,39,41,93)       -175.6818         calculate D2E/DX2 analytically  !
 ! D285  D(89,39,41,40)        179.6532         calculate D2E/DX2 analytically  !
 ! D286  D(89,39,41,92)         57.2995         calculate D2E/DX2 analytically  !
 ! D287  D(89,39,41,93)        -59.5096         calculate D2E/DX2 analytically  !
 ! D288  D(38,40,41,39)         56.4597         calculate D2E/DX2 analytically  !
 ! D289  D(38,40,41,92)        178.2467         calculate D2E/DX2 analytically  !
 ! D290  D(38,40,41,93)        -64.9268         calculate D2E/DX2 analytically  !
 ! D291  D(90,40,41,39)        178.6116         calculate D2E/DX2 analytically  !
 ! D292  D(90,40,41,92)        -59.6014         calculate D2E/DX2 analytically  !
 ! D293  D(90,40,41,93)         57.2251         calculate D2E/DX2 analytically  !
 ! D294  D(91,40,41,39)        -64.3242         calculate D2E/DX2 analytically  !
 ! D295  D(91,40,41,92)         57.4627         calculate D2E/DX2 analytically  !
 ! D296  D(91,40,41,93)        174.2892         calculate D2E/DX2 analytically  !
 ! D297  D(98,94,95,96)        179.3587         calculate D2E/DX2 analytically  !
 ! D298  D(98,94,95,97)         -4.4947         calculate D2E/DX2 analytically  !
 ! D299  D(102,94,95,96)        -2.9883         calculate D2E/DX2 analytically  !
 ! D300  D(102,94,95,97)       173.1583         calculate D2E/DX2 analytically  !
 ! D301  D(95,94,98,105)       101.0776         calculate D2E/DX2 analytically  !
 ! D302  D(95,94,98,106)       -19.9518         calculate D2E/DX2 analytically  !
 ! D303  D(95,94,98,107)      -141.4468         calculate D2E/DX2 analytically  !
 ! D304  D(102,94,98,105)      -76.5858         calculate D2E/DX2 analytically  !
 ! D305  D(102,94,98,106)      162.3848         calculate D2E/DX2 analytically  !
 ! D306  D(102,94,98,107)       40.8898         calculate D2E/DX2 analytically  !
 ! D307  D(94,95,96,1)         -89.1211         calculate D2E/DX2 analytically  !
 ! D308  D(94,95,96,99)        153.7681         calculate D2E/DX2 analytically  !
 ! D309  D(94,95,96,103)        11.1525         calculate D2E/DX2 analytically  !
 ! D310  D(97,95,96,1)          94.5027         calculate D2E/DX2 analytically  !
 ! D311  D(97,95,96,99)        -22.6081         calculate D2E/DX2 analytically  !
 ! D312  D(97,95,96,103)      -165.2237         calculate D2E/DX2 analytically  !
 ! D313  D(94,95,97,100)      -159.6393         calculate D2E/DX2 analytically  !
 ! D314  D(94,95,97,104)        14.6621         calculate D2E/DX2 analytically  !
 ! D315  D(96,95,97,100)        16.6407         calculate D2E/DX2 analytically  !
 ! D316  D(96,95,97,104)      -169.058          calculate D2E/DX2 analytically  !
 ! D317  D(1,96,99,101)       -107.2104         calculate D2E/DX2 analytically  !
 ! D318  D(1,96,99,108)         69.8691         calculate D2E/DX2 analytically  !
 ! D319  D(95,96,99,101)        15.1573         calculate D2E/DX2 analytically  !
 ! D320  D(95,96,99,108)      -167.7631         calculate D2E/DX2 analytically  !
 ! D321  D(103,96,99,101)      157.1477         calculate D2E/DX2 analytically  !
 ! D322  D(103,96,99,108)      -25.7727         calculate D2E/DX2 analytically  !
 ! D323  D(95,97,100,101)       -2.3234         calculate D2E/DX2 analytically  !
 ! D324  D(95,97,100,109)      176.2534         calculate D2E/DX2 analytically  !
 ! D325  D(104,97,100,101)    -176.5997         calculate D2E/DX2 analytically  !
 ! D326  D(104,97,100,109)       1.9771         calculate D2E/DX2 analytically  !
 ! D327  D(96,99,101,100)       -0.7211         calculate D2E/DX2 analytically  !
 ! D328  D(96,99,101,110)      177.2944         calculate D2E/DX2 analytically  !
 ! D329  D(108,99,101,100)    -177.74           calculate D2E/DX2 analytically  !
 ! D330  D(108,99,101,110)       0.2755         calculate D2E/DX2 analytically  !
 ! D331  D(97,100,101,99)       -6.1173         calculate D2E/DX2 analytically  !
 ! D332  D(97,100,101,110)     175.8452         calculate D2E/DX2 analytically  !
 ! D333  D(109,100,101,99)     175.2946         calculate D2E/DX2 analytically  !
 ! D334  D(109,100,101,110)     -2.7429         calculate D2E/DX2 analytically  !
 --------------------------------------------------------------------------------
 Trust Radius=3.00D-01 FncErr=5.00D-06 GrdErr=5.00D-06 EigMax=2.50D+02 EigMin=1.00D-04
 Number of steps in this run=    660 maximum allowed number of steps=    660.
 GradGradGradGradGradGradGradGradGradGradGradGradGradGradGradGradGradGrad

 Symmetry turned off by external request.
 Stoichiometry    C44H61CoN2O2
 Framework group  C1[X(C44H61CoN2O2)]
 Deg. of freedom   324
 Full point group                 C1      NOp   1
                          Input orientation:                          
 ---------------------------------------------------------------------
 Center     Atomic      Atomic             Coordinates (Angstroms)
 Number     Number       Type             X           Y           Z
 ---------------------------------------------------------------------
      1         27           0       -0.347300    0.388103   -1.286937
      2          8           0        0.871029   -1.023787   -1.692174
      3          8           0       -1.656976   -0.980811   -1.008517
      4          7           0        0.872132    1.697120   -1.861307
      5          7           0       -1.634517    1.781142   -1.324830
      6          6           0        2.940519   -2.155869   -1.836812
      7          6           0       -3.753230   -2.017212   -0.675753
      8          6           0        2.155124   -0.950100   -1.836045
      9          6           0       -2.946891   -0.860507   -0.941829
     10          6           0        2.843192    0.294625   -2.016352
     11          6           0       -3.621685    0.391014   -1.127749
     12          6           0        5.006303   -0.819740   -2.139488
     13          6           0       -5.815116   -0.665458   -0.904812
     14          6           0        2.257693   -3.520393   -1.696639
     15          6           0       -3.088368   -3.363994   -0.368061
     16          6           0        4.312890   -2.042184   -1.974698
     17          6           0       -5.136208   -1.879028   -0.678380
     18          6           0        4.245688    0.328133   -2.175694
     19          6           0       -5.028981    0.452031   -1.111935
     20          6           0        6.527970   -0.832757   -2.266840
     21          6           0       -7.341541   -0.551051   -0.907981
     22          6           0        2.134868    1.530073   -2.116141
     23          6           0       -2.921011    1.628816   -1.304464
     24          6           0        0.239070    2.972238   -2.231414
     25          6           0       -1.008360    3.119694   -1.362872
     26          6           0        1.325883   -3.749123   -2.896875
     27          6           0        1.451276   -3.597571   -0.389874
     28          6           0        3.268928   -4.668158   -1.676078
     29          6           0       -2.230674   -3.234158    0.901383
     30          6           0       -4.115688   -4.468495   -0.112314
     31          6           0       -2.205369   -3.818897   -1.539850
     32          6           0        7.101936    0.578226   -2.373069
     33          6           0        7.141542   -1.511398   -1.034395
     34          6           0        6.929830   -1.622035   -3.520064
     35          6           0       -7.811397   -0.005065   -2.262985
     36          6           0       -7.785858    0.416847    0.196674
     37          6           0       -8.024139   -1.897258   -0.670710
     38          6           0       -0.110740    2.948633   -3.721102
     39          6           0       -1.876088    4.288025   -1.814513
     40          6           0       -0.935231    4.160817   -4.129514
     41          6           0       -2.209601    4.250157   -3.300556
     42          1           0        4.907112   -2.950039   -1.959820
     43          1           0       -5.732056   -2.762903   -0.487434
     44          1           0        4.708026    1.301994   -2.311898
     45          1           0       -5.489402    1.426966   -1.264548
     46          1           0        2.707274    2.398431   -2.459073
     47          1           0       -3.556324    2.511744   -1.403074
     48          1           0        0.927273    3.803456   -2.026897
     49          1           0       -0.677897    3.303052   -0.332970
     50          1           0        0.825283   -4.719876   -2.809901
     51          1           0        0.560451   -2.975327   -2.963876
     52          1           0        1.894084   -3.753301   -3.833352
     53          1           0        2.103535   -3.460036    0.479966
     54          1           0        0.663276   -2.844168   -0.355484
     55          1           0        0.987760   -4.586287   -0.296810
     56          1           0        2.735223   -5.618084   -1.575033
     57          1           0        3.857338   -4.721562   -2.597429
     58          1           0        3.965036   -4.592823   -0.834368
     59          1           0       -1.755486   -4.192711    1.138877
     60          1           0       -1.445190   -2.486579    0.781513
     61          1           0       -2.847215   -2.949519    1.761191
     62          1           0       -3.592648   -5.404321    0.107300
     63          1           0       -4.761811   -4.247524    0.743237
     64          1           0       -4.756530   -4.648608   -0.981408
     65          1           0       -2.796736   -3.929575   -2.455743
     66          1           0       -1.403233   -3.106668   -1.731696
     67          1           0       -1.759898   -4.795010   -1.316505
     68          1           0        8.192576    0.532409   -2.447830
     69          1           0        6.734225    1.105984   -3.258477
     70          1           0        6.856776    1.183879   -1.494123
     71          1           0        8.233222   -1.539664   -1.117057
     72          1           0        6.890351   -0.969593   -0.116805
     73          1           0        6.794287   -2.542334   -0.919424
     74          1           0        6.571051   -2.654942   -3.480212
     75          1           0        6.522109   -1.161614   -4.425761
     76          1           0        8.019823   -1.654677   -3.622075
     77          1           0       -8.902303    0.092423   -2.283152
     78          1           0       -7.388233    0.982245   -2.470354
     79          1           0       -7.520327   -0.671354   -3.081538
     80          1           0       -7.476017    0.059984    1.184276
     81          1           0       -7.360864    1.414836    0.054182
     82          1           0       -8.876424    0.520057    0.205236
     83          1           0       -9.110740   -1.769472   -0.690430
     84          1           0       -7.765952   -2.630342   -1.441471
     85          1           0       -7.762700   -2.325612    0.301954
     86          1           0       -0.677212    2.028721   -3.924779
     87          1           0        0.815297    2.880644   -4.301637
     88          1           0       -1.303220    5.198804   -1.600268
     89          1           0       -2.776921    4.358453   -1.197528
     90          1           0       -1.169831    4.108534   -5.197248
     91          1           0       -0.341639    5.073943   -3.985168
     92          1           0       -2.787241    5.138952   -3.572901
     93          1           0       -2.848592    3.385782   -3.523815
     94          6           0        2.544468   -0.006756    1.056557
     95          6           0        1.434211    0.789819    1.110389
     96          6           0        0.111468    0.239480    0.802868
     97          6           0        1.479207    2.168973    1.542866
     98          6           0        3.947433    0.390832    1.322876
     99          6           0       -1.022819    0.884425    1.402251
    100          6           0        0.349879    2.795063    1.973674
    101          6           0       -0.915550    2.123351    1.963377
    102          1           0        2.379712   -1.058522    0.827240
    103          1           0        0.071874   -0.846784    0.726904
    104          1           0        2.437383    2.675743    1.610229
    105          1           0        4.268037    0.083926    2.327951
    106          1           0        4.114386    1.468081    1.245352
    107          1           0        4.629231   -0.108878    0.625664
    108          1           0       -1.986208    0.381892    1.356707
    109          1           0        0.405419    3.811514    2.353687
    110          1           0       -1.788484    2.621147    2.375180
 ---------------------------------------------------------------------
 Rotational constants (GHZ):           0.0989604           0.0425135           0.0355496
 General basis read from cards:  (5D, 7F)
 ======================================================================================================
                                       Pseudopotential Parameters
 ======================================================================================================
  Center     Atomic      Valence      Angular      Power
  Number     Number     Electrons     Momentum     of R      Exponent        Coefficient   SO-Coeffient
 ======================================================================================================
    1         27           17
                                      F and up 
                                                     2        1.0000000        0.00000000    0.00000000
                                      S - F
                                                     2       23.6600000      283.96056600    0.00000000
                                                     2       10.6100000       47.15684600    0.00000000
                                      P - F
                                                     2       25.0400000      182.21223600    0.00000000
                                                     2       10.4400000       35.23335200    0.00000000
                                      D - F
                                                     2       29.5400000      -26.47533300    0.00000000
                                                     2       10.1800000       -1.82578700    0.00000000
    2          8
                                   No pseudopotential on this center.
    3          8
                                   No pseudopotential on this center.
    4          7
                                   No pseudopotential on this center.
    5          7
                                   No pseudopotential on this center.
    6          6
                                   No pseudopotential on this center.
    7          6
                                   No pseudopotential on this center.
    8          6
                                   No pseudopotential on this center.
    9          6
                                   No pseudopotential on this center.
   10          6
                                   No pseudopotential on this center.
   11          6
                                   No pseudopotential on this center.
   12          6
                                   No pseudopotential on this center.
   13          6
                                   No pseudopotential on this center.
   14          6
                                   No pseudopotential on this center.
   15          6
                                   No pseudopotential on this center.
   16          6
                                   No pseudopotential on this center.
   17          6
                                   No pseudopotential on this center.
   18          6
                                   No pseudopotential on this center.
   19          6
                                   No pseudopotential on this center.
   20          6
                                   No pseudopotential on this center.
   21          6
                                   No pseudopotential on this center.
   22          6
                                   No pseudopotential on this center.
   23          6
                                   No pseudopotential on this center.
   24          6
                                   No pseudopotential on this center.
   25          6
                                   No pseudopotential on this center.
   26          6
                                   No pseudopotential on this center.
   27          6
                                   No pseudopotential on this center.
   28          6
                                   No pseudopotential on this center.
   29          6
[...]
 234,-0.00004591,-0.00011056,0.00004362,-0.00001872,0.00001581,-0.00002
 816,0.00005263,0.00004599,-0.00003608,0.00001083,0.00002875,0.00009136
 ,-0.00002588,0.00004921,0.00001602,0.00001467,-0.00003873,-0.00000870,
 -0.00000072,-0.00000730,-0.00002707,0.00000003,-0.00003583,0.00002021,
 -0.00002121,-0.00001108,-0.00003445,0.00000129,-0.00001035,-0.00000087
 ,0.00000923,-0.00001809,0.00000248,0.00003659,-0.00000327,-0.00000355,
 0.00000282,0.00000282,-0.00000063,0.00000738,0.00000260,0.00000115,0.0
 0000424,-0.00000092,-0.00002830,-0.00001100,0.00000360,0.00000214,-0.0
 0000548,0.00000456,0.00003207,-0.00003109,0.00000086,0.00000371,-0.000
 00183,-0.00000783,-0.00000550,-0.00000489,0.00000075,0.00000491,-0.000
 00171,-0.00000145,0.00002315,0.00000051,-0.00002343,-0.00000638,0.0000
 2077,0.00001475,0.00004029,-0.00004223,0.00000072,-0.00000113,-0.00000
 682,0.00000615,0.00000069,-0.00000187,0.00000362,0.00000163,-0.0000032
 2,-0.00000042,-0.00000359,-0.00000079,0.00000017,0.00000261,-0.0000016
 4,-0.00000201,0.00000138,0.00000042,-0.00000080,0.00000119,-0.00000154
 ,0.00000143,0.00000192,-0.00000326,-0.00000092,0.00000356,0.00000227,-
 0.00000310,0.00000469,0.00000292,0.00000343,-0.00000131,0.00000095,0.0
 0000100,-0.00000191,-0.00000168,-0.00000077,-0.00000172,0.00000162,0.0
 0000071,-0.00001733,0.00001401,0.00000689,-0.00000822,0.00000942,0.000
 01161,-0.00000050,-0.00000045,-0.00000684,0.00000774,-0.00000433,-0.00
 000029,0.00000354,-0.00000194,0.00000197,-0.00000137,-0.00000099,-0.00
 000084,0.00000292,0.00000276,-0.00000024,-0.00000151,0.00000147,-0.000
 00048,0.00000849,0.00000258,-0.00000301,-0.00001046,-0.00000014,-0.000
 00225,0.00000903,0.00000699,-0.00000813,0.00001210,-0.00006014,0.00002
 784,-0.00000166,-0.00000290,-0.00000040,0.00000123,0.00000268,0.000002
 74,0.00000105,-0.00000092,-0.00000159,-0.00000341,-0.00000164,-0.00000
 009,0.00000216,0.00000572,-0.00000201,-0.00000009,-0.00000421,-0.00000
 105,0.00000014,-0.00000183,0.00000022,0.00000084,-0.00000015,-0.000000
 42,0.00000020,-0.00000030,-0.00000023,-0.00000121,-0.00000136,0.000000
 12,-0.00000435,-0.00000338,-0.00000124,0.00000109,0.00000089,0.0000001
 9,0.,-0.00000038,0.,-0.00000029,-0.00000021,0.00000098,-0.00000048,-0.
 00000086,-0.00000009,-0.00000079,0.00000027,-0.00000086,-0.00000184,0.
 00000150,0.00000124,0.00000083,-0.00000123,0.00000006,0.00000176,0.000
 00105,-0.00000007,-0.00000003,-0.00000008,-0.00000060,-0.00000032,0.00
 000016,0.00000058,0.00000318,-0.00000128,0.00000124,-0.00000032,-0.000
 00073,0.00000037,-0.00000021,0.00000163,0.00000011,-0.00000010,0.00000
 006,-0.00000003,-0.00000052,0.00000037,-0.00000081,0.00000232,-0.00000
 177,-0.00000223,-0.00000130,0.00000022,-0.00000047,-0.00000053,-0.0000
 0082,0.00000031,-0.00000002,0.00000009,-0.00000022,-0.00000018,0.00000
 004,0.00000005,0.00000008,-0.00000003,-0.00000012,-0.00000145,0.000000
 93,0.00000098,-0.00000072,-0.00000002,0.,0.00000032,-0.00000026,-0.000
 00044,0.00000039,0.00000065,0.00000041,0.00000133,0.00000110,0.0000021
 8,-0.00000136,-0.00000216,0.00000662,-0.00000269,0.00001112,-0.0000076
 3,-0.00000085,-0.00000046,-0.00000023,-0.00000111,0.00000255,0.0000007
 7,-0.00000137,0.00000061,-0.00000292,0.00000059,-0.00000031,0.00000386
 ,0.00000271,0.00000371,0.00000456,-0.00055105,-0.00124069,-0.00009787,
 0.00325835,-0.00270533,0.00914634,0.00031611,0.00060536,-0.00048281,-0
 .00285799,-0.00991994,0.00052354,-0.00010115,-0.00016468,0.00027845,0.
 00056594,-0.00043045,0.00369784,-0.00009417,-0.09625010,-0.07345587,0.
 00034726,-0.00024564,0.00217529,0.00051525,0.00001862,-0.00113242,-0.0
 0004350,0.00009952,-0.00041775,-0.00079069,0.00249827,-0.00506966,0.00
 003080,0.00007221,0.00001116,-0.00008050,0.00008495,0.00009661,0.00000
 761,-0.00003437,0.00001767,0.00005039,0.00001346,0.00000788,-0.0000708
 3,0.10684596,0.06613438,-0.00009487,-0.00009421,0.00042745,-0.00004547
 ,0.00005311,-0.00002033,0.00008577,0.00003296,-0.00002407,0.00006601,0
 .00003635,0.00001149,-0.00000559,0.00004222,0.00002309,0.00000197,-0.0
 0002364,0.00001071,0.00001833,-0.00000523,0.00001382,0.00005115,0.0000
 0353,0.00001052,-0.00006841,0.00000984,0.00002084,-0.00000777,0.000019
 04,0.00001010,0.00002149,0.00002143,0.00003360,-0.00000195,0.00001625,
 -0.00000008,0.00001445,0.00002935,-0.00000871,-0.00000507,-0.00001414,
 -0.00000215,0.00000374,-0.00001178,-0.00000268,-0.00002633,-0.00000337
 ,0.00000093,0.00001929,0.00000474,-0.00000419,0.00002489,0.00000883,0.
 00000236,-0.00003614,0.00000268,0.00000714,0.00001246,0.00001104,-0.00
 000009,-0.00001323,-0.00000233,-0.00000190,0.00001716,-0.00003916,0.00
 000286,-0.00001998,-0.00001152,0.00013323,-0.00001679,0.00003573,-0.00
 002009,0.00006262,-0.00000313,0.00004573,0.00000285,0.00000582,-0.0000
 0454,0.00000479,0.00000633,0.00000199,0.00000826,0.00000201,-0.0000009
 7,-0.00001157,0.00000487,0.00000754,-0.00000395,0.00000202,0.00000050,
 -0.00000249,0.00000273,-0.00000069,-0.00000218,0.00000275,-0.00000281,
 -0.00000938,-0.00000406,0.00000596,-0.00000926,-0.00000448,-0.00000563
 ,0.00000648,0.00000142,-0.00000523,0.00000846,0.00000223,0.00000567,0.
 00000248,-0.00000367,0.00000087,-0.00000459,-0.00001771,-0.00000883,0.
 00002402,-0.00000407,0.00003077,0.00000502,0.00000411,0.00000667,-0.00
 000727,-0.00000918,-0.00000077,-0.00000492,0.00000163,0.00000132,0.000
 00452,0.00000171,0.00000069,-0.00000226,-0.00000502,-0.00000075,0.0000
 0104,-0.00000603,0.00000047,-0.00001105,-0.00000640,0.00000078,0.00001
 082,0.00001079,0.00000414,-0.00000474,-0.00001327,0.00000150,-0.000029
 86,0.00002465,-0.00005975,0.00000148,0.00000421,0.00000312,-0.00000306
 ,-0.00000414,-0.00000362,-0.00000199,0.00000137,0.00000122,0.00000052,
 0.00000135,-0.00000073,-0.00000640,-0.00000340,0.00000545,0.00000109,0
 .00000576,-0.00000118,-0.00000065,0.00000407,-0.00000050,-0.00000138,0
 .00000075,-0.00000002,-0.00000029,0.00000052,0.00000136,0.00000194,0.0
 0000449,-0.00000165,0.00000912,-0.00000066,0.00000349,0.00000134,0.000
 00015,-0.00000358,-0.00000036,0.00000454,-0.00000065,0.00000137,0.0000
 0012,-0.00000087,0.00000079,0.00000053,-0.00000060,0.00000186,0.000003
 04,0.00000190,0.00000327,-0.00000701,-0.00000344,-0.00000097,0.0000043
 1,-0.00000037,-0.00000493,-0.00000113,0.00000036,0.00000051,-0.0000012
 3,-0.00000007,0.00000040,0.00000030,0.00000294,-0.00000559,0.00000182,
 -0.00000266,0.00000098,-0.00000029,0.00000004,0.00000141,-0.00000069,0
 .00000049,0.00000063,-0.00000042,-0.00000085,0.00000024,-0.00000029,0.
 00000041,-0.00000363,0.00000236,0.00000445,0.00000313,-0.00000124,0.00
 000321,-0.00000064,-0.00000115,0.00000100,-0.00000051,0.00000075,-0.00
 000014,-0.00000138,0.00000075,-0.00000206,-0.00000163,-0.00000084,-0.0
 0000012,0.00000347,-0.00000317,-0.00000237,0.00000315,0.00000168,0.000
 00043,-0.00000032,0.00000010,-0.00000094,0.00000048,0.00000059,-0.0000
 0002,-0.00000333,-0.00000150,-0.00000034,-0.00000154,-0.00000035,0.000
 00340,-0.00000555,-0.00000803,0.00000572,-0.00001959,-0.00000990,0.000
 06177,0.00000180,-0.00000239,0.00000461,-0.00000151,-0.00000240,-0.000
 00048,0.00000275,-0.00000431,0.00000531,0.00000105,0.00000200,-0.00000
 326,0.00012815,0.00029763,-0.00001218,0.00036536,-0.00062806,-0.000298
 50,0.00119913,-0.00172212,0.00021619,-0.00310708,-0.00426433,-0.000090
 99,-0.00004305,0.00002345,0.00002308,0.00468938,-0.00406855,-0.0024495
 5,-0.01620937,0.01524733,0.01033656,-0.23440409,0.09990278,0.08940942,
 -0.00006256,0.00005265,0.00003574,0.00031157,-0.00026745,0.00001808,-0
 .00114320,0.00080766,0.00038072,-0.00003598,-0.00001477,-0.00002322,0.
 00003256,0.00003320,-0.00000398,-0.00003246,0.00002439,-0.00000539,0.0
 0060924,0.00078359,-0.00100559,0.00124423,0.00026250,-0.00059641,0.246
 44768,0.00024129,-0.00004726,-0.00063895,0.00006344,-0.00003492,0.0000
 2062,-0.00015299,-0.00000183,0.00000276,-0.00012218,-0.00009148,0.0000
 3395,0.00022820,-0.00005820,0.00015055,0.00000692,0.00002679,-0.000011
 29,-0.00003350,0.00000033,-0.00001084,-0.00011220,0.00000985,0.0000137
 5,0.00015328,-0.00003497,-0.00002264,0.00001374,-0.00003302,-0.0000268
 8,-0.00002473,0.00002220,-0.00001235,0.00001141,-0.00002603,0.00000092
 ,-0.00001760,-0.00000462,0.00000427,0.00000402,0.00001696,0.00000678,-
 0.00000770,0.00001350,0.00000205,0.00003815,0.00000317,-0.00000437,-0.
 00001049,-0.00002893,0.00001157,-0.00003241,-0.00001360,0.00000269,0.0
 0002147,-0.00000638,-0.00000030,-0.00001904,-0.00001420,0.00000097,0.0
 0001424,-0.00000683,-0.00000211,0.00000713,0.00006709,-0.00001199,-0.0
 0004505,0.00004685,-0.00003290,0.00002244,-0.00006159,-0.00000024,-0.0
 0004847,-0.00006049,-0.00007684,-0.00000187,-0.00000711,0.00000690,-0.
 00001919,-0.00000482,-0.00001156,-0.00000851,-0.00000206,-0.00000536,0
 .00001710,0.00000145,-0.00001172,0.00000900,-0.00000089,-0.00000244,0.
 00000435,-0.00000242,0.00000490,0.00000596,-0.00000813,0.00000092,0.00
 001205,0.00000551,-0.00001165,0.00001487,0.00000642,0.00000943,-0.0000
 0861,-0.00000017,0.00000584,-0.00000741,-0.00000209,-0.00000926,-0.000
 00672,0.00000633,-0.00000050,0.00000074,0.00001874,0.00001190,-0.00000
 276,0.00000486,-0.00000141,-0.00000528,-0.00000756,-0.00001402,0.00001
 378,0.00001018,0.00001065,0.00000757,-0.00000274,-0.00000134,-0.000006
 68,-0.00000032,-0.00000003,0.00000514,0.00000871,-0.00000250,-0.000007
 57,0.00000591,-0.00000783,0.00001875,0.00001085,-0.00000588,-0.0000276
 5,-0.00000820,-0.00003179,0.00000754,0.00001955,-0.00000701,-0.0000471
 9,-0.00000845,0.00000159,-0.00000289,-0.00000763,-0.00000345,0.0000048
 0,0.00000673,0.00000881,0.00000288,-0.00000221,-0.00000314,0.00000283,
 -0.00000008,0.00000259,0.00001271,0.00002339,-0.00000890,0.00000196,-0
 .00001476,0.00000318,0.00000025,-0.00000516,-0.00000043,0.00000314,-0.
 00000154,0.00000015,0.00000193,-0.00000028,0.00000084,-0.00000460,-0.0
 0000688,0.00000280,-0.00000268,0.00001295,-0.00001066,-0.00000459,-0.0
 0000013,0.00000366,-0.00000054,-0.00000392,0.00000081,-0.00000195,-0.0
 0000091,0.00000158,-0.00000297,-0.00000190,0.00000088,-0.00000361,-0.0
 0000074,-0.00000022,-0.00000490,0.00001079,0.00000610,0.00000092,-0.00
 000812,-0.00000140,0.00000536,0.00000292,-0.00000081,-0.00000053,0.000
 00069,0.00000095,-0.00000082,0.00000058,-0.00000102,0.00000737,-0.0000
 0255,0.00000592,-0.00000121,-0.00000012,0.00000137,-0.00000085,0.00000
 153,-0.00000084,-0.00000130,0.00000049,0.00000095,-0.00000116,0.000000
 63,-0.00000103,0.00000642,-0.00000420,-0.00000692,-0.00000446,0.000002
 02,-0.00000331,0.00000095,-0.00000140,0.00000015,0.00000067,0.00000099
 ,0.00000082,-0.00000079,-0.00000337,0.00000388,-0.00000072,0.00000065,
 -0.00000211,-0.00000390,0.00000318,0.00000470,-0.00000248,-0.00000131,
 0.00000046,0.00000083,0.00000098,0.00000051,0.00000052,-0.00000108,-0.
 00000004,-0.00000144,-0.00000282,0.00000347,0.00000034,-0.00000053,-0.
 00000736,-0.00000409,0.00001083,-0.00000621,0.00001415,0.00000574,-0.0
 0003884,-0.00000129,0.00000475,-0.00000532,0.00000091,0.00000448,0.000
 00070,-0.00000418,0.00000512,-0.00000720,0.00000056,-0.00000332,0.0000
 0158,0.00005684,0.00013164,0.00025349,-0.00054741,-0.00057722,0.000066
 79,-0.00232813,-0.00237778,-0.00361597,-0.00299556,-0.00088155,-0.0013
 2467,0.00001160,-0.00004136,0.00002623,0.02501280,-0.00840009,-0.01116
 788,-0.01305786,0.00892081,0.00627544,0.09907645,-0.11037935,-0.056413
 59,-0.00002399,0.00003247,-0.00004334,0.00073029,-0.00033780,-0.000569
 89,-0.00083033,0.00044858,0.00002913,0.00002557,0.00000754,0.00001120,
 0.00003097,0.00002601,-0.00001276,0.00003482,0.00002996,-0.00000329,0.
 00029084,0.00030973,0.00251474,0.00091341,0.00048777,0.00083792,-0.106
 57867,0.11285023,-0.00060986,0.00020625,0.00136633,0.00009712,0.000042
 76,-0.00021611,-0.00009150,-0.00000693,-0.00012678,0.00008849,0.000106
 47,-0.00000715,-0.00010619,-0.00003213,0.00003689,0.00001206,-0.000035
 63,-0.00000986,-0.00000278,-0.00002699,0.00002356,-0.00007666,-0.00001
 145,-0.00000878,0.00014990,0.00005027,0.00000596,-0.00002910,0.0000808
 6,-0.00000853,0.00002223,0.00003412,-0.00000852,-0.00001006,0.00004684
 ,-0.00000883,-0.00000172,0.00003448,-0.00000497,0.00000559,-0.00000776
 ,0.00000460,-0.00000289,-0.00001333,0.00000622,-0.00004282,-0.00000207
 ,0.00000788,0.00003416,0.00000182,-0.00000163,0.00004553,-0.00000378,-
 0.00000731,-0.00001587,-0.00000120,-0.00000372,0.00000779,0.00000200,0
 .00000041,-0.00000693,-0.00000400,-0.00000294,0.00003712,-0.00012473,0
 .00000834,-0.00003610,-0.00008420,0.00010285,0.00002313,0.00002036,0.0
 0003177,0.00001984,0.00010641,0.00013003,0.00000233,0.00000248,-0.0000
 0164,-0.00001813,0.00000720,-0.00000099,0.00000402,0.00000237,-0.00000
 592,0.00000872,0.00001360,-0.00000237,-0.00000618,0.00000512,-0.000003
 10,0.00000116,0.00000350,-0.00000153,-0.00000416,0.00000307,0.00000066
 ,-0.00000485,-0.00000151,0.00000416,-0.00000548,-0.00000100,-0.0000022
 4,0.00000217,0.00000058,-0.00000515,0.00000234,0.00000014,0.00000250,0
 .00000072,-0.00000350,0.00000395,-0.00002592,-0.00000978,-0.00000548,-
 0.00001779,-0.00000514,-0.00002713,0.00000614,0.00000778,0.00000055,-0
 .00000879,0.00000032,-0.00000274,-0.00000428,-0.00000034,0.00000205,0.
 00000416,-0.00000071,-0.00000160,-0.00000088,-0.00000483,0.00000372,-0
 .00000507,-0.00000347,0.00000070,-0.00001364,-0.00000616,0.00000283,0.
 00001680,0.00001711,0.00000375,-0.00000553,-0.00001547,0.00000935,0.00
 010490,-0.00004245,-0.00003285,0.00000052,0.00000274,0.00000240,-0.000
 00230,-0.00000299,-0.00000154,-0.00000033,0.00000069,-0.00000268,-0.00
 000353,0.00000231,-0.00000249,0.00000794,0.00001174,0.00000998,0.00000
 435,-0.00000757,-0.00000294,-0.00000025,0.00000349,-0.00000049,0.00000
 157,-0.00000172,-0.00000034,-0.00000054,0.00000137,0.00000097,-0.00000
 558,0.00000235,-0.00000124,0.00000900,0.00001897,-0.00000503,-0.000002
 57,-0.00000224,0.00000122,0.00000085,0.00000314,-0.00000069,0.00000175
 ,-0.00000047,-0.00000030,-0.00000209,-0.00000246,-0.00000096,-0.000000
 41,0.00000131,-0.00000004,0.00000075,-0.00000402,-0.00000096,-0.000001
 86,0.00000275,0.00000120,-0.00000145,-0.00000113,0.00000036,-0.0000001
 0,0.00000048,-0.00000062,-0.00000029,-0.00000109,-0.00000142,-0.000002
 76,0.00000126,-0.00000156,0.00000064,-0.00000184,-0.00000087,0.0000003
 1,0.00000065,0.00000009,0.00000003,-0.00000052,-0.00000034,-0.00000032
 ,0.00000039,-0.00000051,-0.00000216,0.00000010,0.00000233,0.00000179,-
 0.00000087,0.00000185,0.00000063,0.00000133,0.00000105,-0.00000066,0.0
 0000086,0.00000090,-0.00000073,-0.00000114,0.00000046,-0.00000062,0.00
 000046,-0.00000148,0.00000195,-0.00000103,-0.00000096,0.00000211,0.000
 00070,-0.00000094,0.00000050,0.00000040,-0.00000223,0.00000057,0.00000
 215,0.00000039,0.00000014,0.00000086,-0.00000002,-0.00000237,0.0000003
 8,0.00001228,0.00000164,-0.00001446,0.00000091,-0.00001125,0.00000175,
 -0.00000579,0.00000040,-0.00000179,0.00000574,-0.00000361,-0.00000450,
 -0.00000040,0.00000386,-0.00000486,0.00000429,0.00000089,0.00000459,0.
 00000105,-0.00012641,0.00016710,-0.00029119,0.00003563,0.00010671,-0.0
 0055180,-0.00067440,-0.00614982,0.00672876,0.00032273,-0.00034745,0.00
 318957,0.00007046,0.00000428,0.00013834,0.01107965,-0.00514610,-0.0022
 1188,-0.00230125,-0.00014801,0.00169730,0.08854630,-0.05568247,-0.0764
 4118,-0.00000912,0.00004556,-0.00004172,0.00150818,-0.00044655,-0.0006
 2406,0.00002466,-0.00019453,0.00019947,0.00004563,0.00002554,0.0000065
 2,0.00001046,-0.00001078,0.00001545,-0.00003408,-0.00000713,0.00000158
 ,-0.00108973,0.00273353,-0.00421548,-0.00028571,0.00082840,-0.00137294
 ,-0.09666266,0.06386184,0.07251147\\-0.00000002,-0.00000015,-0.0000003
 5,0.00000010,0.00000008,0.00000049,0.00000014,-0.00000021,-0.00000014,
 -0.00000014,-0.00000002,-0.00000041,-0.00000025,-0.00000031,-0.0000009
 6,0.00000041,0.00000009,0.00000132,-0.00000004,-0.00000014,-0.00000023
 ,0.00000027,-0.00000013,0.00000073,0.00000008,-0.00000010,-0.00000050,
 0.00000012,0.,0.00000054,-0.00000009,-0.00000029,-0.00000102,0.0000002
 4,0.00000010,0.00000141,0.,-0.00000038,-0.00000121,0.00000024,0.000000
 05,0.00000169,0.00000003,0.,0.00000036,0.00000035,0.00000012,0.0000016
 4,0.00000009,-0.00000026,-0.00000065,0.00000019,0.00000005,0.00000074,
 -0.00000010,-0.00000043,-0.00000148,0.00000027,0.00000019,0.00000171,-
 0.00000007,-0.00000049,-0.00000154,0.00000019,-0.00000017,-0.00000014,
 -0.00000021,-0.00000021,-0.00000136,-0.00000004,-0.00000026,-0.0000011
 1,-0.00000025,-0.00000010,-0.00000142,0.00000069,-0.00000044,0.0000014
 6,0.00000016,0.00000037,0.00000155,0.00000055,0.00000002,0.00000227,-0
 .00000029,0.00000050,0.00000050,0.00000014,0.,0.00000051,0.00000044,-0
 .00000033,0.00000073,0.00000019,0.00000027,0.00000139,0.00000011,0.000
 00066,0.00000213,0.00000068,-0.00000024,0.00000207,0.00000024,-0.00000
 104,-0.00000192,-0.00000038,-0.00000021,-0.00000207,0.00000001,-0.0000
 0056,-0.00000130,0.00000030,-0.00000089,-0.00000110,-0.00000029,-0.000
 00038,-0.00000206,0.00000028,-0.00000112,-0.00000171,0.00000015,-0.000
 00093,-0.00000203,0.00000037,0.00000021,0.00000207,0.00000005,-0.00000
 027,-0.00000047,0.00000011,-0.00000002,0.00000057,-0.00000014,-0.00000
 052,-0.00000188,0.00000005,-0.00000022,-0.00000029,-0.00000020,-0.0000
 0037,-0.00000180,-0.00000018,-0.00000022,-0.00000120,-0.00000053,0.000
 00023,-0.00000140,0.00000080,-0.00000049,0.00000177,0.00000072,-0.0000
 0058,0.00000108,0.00000092,-0.00000076,0.00000169,-0.00000013,0.000000
 77,0.00000160,0.,0.00000038,0.00000102,0.00000019,0.00000045,0.0000017
 1,0.00000059,0.00000017,0.00000250,0.00000066,-0.00000015,0.00000250,0
 .00000027,0.00000048,0.00000246,-0.00000018,0.00000065,0.00000096,-0.0
 0000025,0.00000056,0.00000048,-0.00000047,0.00000079,0.00000029,0.0000
 0014,0.00000014,0.00000094,-0.00000012,0.00000026,0.00000028,0.0000003
 3,-0.00000034,0.00000042,0.00000063,-0.00000068,0.00000061,0.00000038,
 -0.00000032,0.00000066,0.00000041,-0.00000016,0.00000116,0.00000020,0.
 00000030,0.00000166,0.00000037,-0.00000013,0.00000111,-0.00000004,0.00
 000048,0.00000108,0.00000008,0.00000078,0.00000239,-0.00000019,0.00000
 096,0.00000185,0.00000015,0.00000073,0.00000239,0.00000076,-0.00000016
 ,0.00000237,0.00000084,-0.00000053,0.00000185,0.00000065,-0.00000013,0
 .00000237,0.00000024,-0.00000117,-0.00000221,0.00000018,-0.00000113,-0
 .00000217,0.00000048,-0.00000132,-0.00000160,-0.00000060,0.00000018,-0
 .00000186,-0.00000045,-0.00000023,-0.00000227,-0.00000041,-0.00000030,
 -0.00000235,0.00000002,-0.00000065,-0.00000162,0.00000028,-0.00000077,
 -0.00000099,-0.00000017,-0.00000017,-0.00000110,0.00000043,-0.00000102
 ,-0.00000098,0.00000044,-0.00000100,-0.00000094,-0.00000038,-0.0000002
 4,-0.00000219,-0.00000041,-0.00000026,-0.00000225,0.00000054,-0.000001
 50,-0.00000181,0.00000018,-0.00000100,-0.00000193,0.00000007,-0.000001
 07,-0.00000256,0.00000022,-0.00000106,-0.00000193,-0.00000055,0.000001
 05,0.00000046,-0.00000060,0.00000094,0.00000002,-0.00000044,0.00000063
 ,-0.00000022,-0.00000088,0.00000107,-0.00000052,-0.00000062,0.00000108
 ,0.00000068,-0.00000069,0.00000079,-0.00000068,-0.00000097,0.00000118,
 -0.00000093,-0.00000097,0.00000108,-0.00000097,-0.00000041,0.00000089,
 0.00000085,-0.00000041,0.00000071,0.00000022,-0.00000095,0.00000116,-0
 .00000043,-0.00000091,0.00000165,0.00000088,-0.00000073,0.00000132,0.0
 0000033,-0.00000041,0.00000102,0.00000108,-0.00000063,0.00000071,-0.00
 000064,-0.00000120,0.00000129,-0.00000127,-0.00000105,0.00000107,-0.00
 000143\\\@
 The archive entry for this job was punched.


 RESEARCH IS WHAT I AM DOING WHEN I DON'T KNOW WHAT I AM DOING.
     -- WERNER VON BRAUN
 Job cpu time:      11 days 23 hours 20 minutes 32.5 seconds.
 Elapsed time:       0 days  3 hours  1 minutes 16.3 seconds.
 File lengths (MBytes):  RWF=  19069 Int=      0 D2E=      0 Chk=    598 Scr=      1
 Normal termination of Gaussian 16 at Fri Feb 21 00:22:44 2025.
3536106.87user 3493.51system 10:27:24elapsed 9402%CPU (0avgtext+0avgdata 64462464maxresident)k
0inputs+4627568outputs (21492major+29993582minor)pagefaults 0swaps
