 Entering Gaussian System, Link 0=g16
 Initial command:
 /common/software/install/migrated/gaussian/g16.c01.avx2/g16/l1.exe "/tmp/quach062/44804301/Gau-1572483.inp" -scrdir="/tmp/quach062/44804301/"
 Entering Link 1 = /common/software/install/migrated/gaussian/g16.c01.avx2/g16/l1.exe PID=   1572484.
  
 Copyright (c) 1988-2019, Gaussian, Inc.  All Rights Reserved.
  
 This is part of the Gaussian(R) 16 program.  It is based on
 the Gaussian(R) 09 system (copyright 2009, Gaussian, Inc.),
 the Gaussian(R) 03 system (copyright 2003, Gaussian, Inc.),
 the Gaussian(R) 98 system (copyright 1998, Gaussian, Inc.),
 the Gaussian(R) 94 system (copyright 1995, Gaussian, Inc.),
 the Gaussian 92(TM) system (copyright 1992, Gaussian, Inc.),
 the Gaussian 90(TM) system (copyright 1990, Gaussian, Inc.),
 the Gaussian 88(TM) system (copyright 1988, Gaussian, Inc.),
 the Gaussian 86(TM) system (copyright 1986, Carnegie Mellon
 University), and the Gaussian 82(TM) system (copyright 1983,
 Carnegie Mellon University). Gaussian is a federally registered
 trademark of Gaussian, Inc.
  
 This software contains proprietary and confidential information,
 including trade secrets, belonging to Gaussian, Inc.
  
 This software is provided under written license and may be
 used, copied, transmitted, or stored only in accord with that
 written license.
  
 The following legend is applicable only to US Government
 contracts under FAR:
  
                    RESTRICTED RIGHTS LEGEND
  
 Use, reproduction and disclosure by the US Government is
 subject to restrictions as set forth in subparagraphs (a)
 and (c) of the Commercial Computer Software - Restricted
 Rights clause in FAR 52.227-19.
  
 Gaussian, Inc.
 340 Quinnipiac St., Bldg. 40, Wallingford CT 06492
  
  
 ---------------------------------------------------------------
 Warning -- This program may not be used in any manner that
 competes with the business of Gaussian, Inc. or will provide
 assistance to any competitor of Gaussian, Inc.  The licensee
 of this program is prohibited from giving any competitor of
 Gaussian, Inc. access to this program.  By using this program,
 the user acknowledges that Gaussian, Inc. is engaged in the
 business of creating and licensing software in the field of
 computational chemistry and represents and warrants to the
 licensee that it is not a competitor of Gaussian, Inc. and that
 it will not use this program in any manner prohibited above.
 ---------------------------------------------------------------
  

 Cite this work as:
 Gaussian 16, Revision C.01,
 M. J. Frisch, G. W. Trucks, H. B. Schlegel, G. E. Scuseria, 
 M. A. Robb, J. R. Cheeseman, G. Scalmani, V. Barone, 
 G. A. Petersson, H. Nakatsuji, X. Li, M. Caricato, A. V. Marenich, 
 J. Bloino, B. G. Janesko, R. Gomperts, B. Mennucci, H. P. Hratchian, 
 J. V. Ortiz, A. F. Izmaylov, J. L. Sonnenberg, D. Williams-Young, 
 F. Ding, F. Lipparini, F. Egidi, J. Goings, B. Peng, A. Petrone, 
 T. Henderson, D. Ranasinghe, V. G. Zakrzewski, J. Gao, N. Rega, 
 G. Zheng, W. Liang, M. Hada, M. Ehara, K. Toyota, R. Fukuda, 
 J. Hasegawa, M. Ishida, T. Nakajima, Y. Honda, O. Kitao, H. Nakai, 
 T. Vreven, K. Throssell, J. A. Montgomery, Jr., J. E. Peralta, 
 F. Ogliaro, M. J. Bearpark, J. J. Heyd, E. N. Brothers, K. N. Kudin, 
 V. N. Staroverov, T. A. Keith, R. Kobayashi, J. Normand, 
 K. Raghavachari, A. P. Rendell, J. C. Burant, S. S. Iyengar, 
 J. Tomasi, M. Cossi, J. M. Millam, M. Klene, C. Adamo, R. Cammi, 
 J. W. Ochterski, R. L. Martin, K. Morokuma, O. Farkas, 
 J. B. Foresman, and D. J. Fox, Gaussian, Inc., Wallingford CT, 2019.
 
 ******************************************
 Gaussian 16:  ES64L-G16RevC.01  3-Jul-2019
                11-Dec-2025 
 ******************************************
 %chk=CoIIIH_and_Cl_S_CA.chk
 %nprocshared=96
 Will use up to   96 processors via shared memory.
 %mem=59800MB
 ----------------------------------------------------------------------
 # opt=calcall # freq # pop=hirshfeld # m06l/genecp/auto # nosymm integ
 ral=grid=ultrafine # scf=(tight,intrep,xqc) # SCRF=(SMD,Solvent=n,n-Di
 MethylFormamide)
 ----------------------------------------------------------------------
 1/10=4,18=20,19=15,26=6,38=1/1,3;
 2/9=110,12=2,15=1,17=6,18=5,40=1/2;
 3/5=7,11=2,16=1,17=8,25=1,30=1,70=32201,71=2,72=148,74=-53,75=-5,82=28,140=1/1,2,3;
 4//1;
 5/5=2,8=3,13=1,17=20,32=2,38=5,53=148/2,8;
 8/6=4,10=90,11=11/1;
 11/6=1,8=1,9=11,15=111,16=1,31=1/1,2,10;
 10/6=1,31=1/2;
 6/7=2,8=2,9=2,10=2,18=1,28=1,79=1/1;
 7/10=1,25=1,30=1/1,2,3,16;
 1/10=4,18=20,19=15,26=6/3(3);
 2/9=110,15=1/2;
 7/8=1,9=1,25=1,30=1,44=-1/16;
 99//99;
 2/9=110,15=1/2;
 3/5=7,6=1,11=2,16=1,17=8,25=1,30=1,70=32205,71=2,72=148,74=-53,75=-5,82=7,140=1/1,2,3;
 4/5=5,16=3,69=1/1;
 5/5=2,8=3,13=1,17=20,32=2,38=5,53=148/2,8;
 8/6=4,10=90,11=11/1;
 11/6=1,8=1,9=11,15=111,16=1,31=1/1,2,10;
 10/6=1,31=1/2;
 7/10=1,25=1,30=1/1,2,3,16;
 1/10=4,18=20,19=15,26=6/3(-8);
 2/9=110,15=1/2;
 6/7=2,8=2,9=2,10=2,18=1,19=2,28=1,79=1/1;
 7/8=1,9=1,25=1,30=1,44=-1/16;
 99//99;
 -----------
 Input: Co-H
 -----------
 Symbolic Z-matrix:
 Charge = -1 Multiplicity = 1
 Co                    0.05408   0.36127  -1.4463 
 O                     1.25607  -1.10113  -1.57661 
 O                    -1.28887  -0.93752  -1.13923 
 N                     1.31154   1.59515  -2.08506 
 N                    -1.13371   1.81908  -1.32735 
 C                     3.29558  -2.28326  -1.68137 
 C                    -3.42243  -1.88881  -0.7977 
 C                     2.53215  -1.07126  -1.80857 
 C                    -2.55931  -0.75267  -0.93498 
 C                     3.22527   0.11276  -2.21408 
 C                    -3.15087   0.54871  -0.8557 
 C                     5.33984  -1.0856   -2.41101 
 C                    -5.36254  -0.39416  -0.42572 
 C                     2.62141  -3.57043  -1.19542 
 C                    -2.86589  -3.30699  -0.9707 
 C                     4.64481  -2.24245  -1.98739 
 C                    -4.77067  -1.6677   -0.54445 
 C                     4.60692   0.07555  -2.51144 
 C                    -4.52833   0.69336  -0.59647 
 C                     6.83151  -1.17923  -2.72599 
 C                    -6.85197  -0.1913   -0.13642 
 C                     2.55571   1.36211  -2.3699 
 C                    -2.39598   1.74913  -1.04537 
 C                     0.71793   2.90234  -2.39422 
 C                    -0.4144    3.11474  -1.38908 
 C                     1.47268  -3.97019  -2.13443 
 C                     2.07885  -3.3569    0.22687 
 C                     3.59963  -4.74527  -1.14235 
 C                    -1.74228  -3.58484   0.03953 
 C                    -3.94048  -4.37596  -0.7625 
 C                    -2.32576  -3.46964  -2.40083 
 C                     7.40989   0.16791  -3.1535 
 C                     7.59088  -1.66044  -1.48212 
 C                     7.05193  -2.18554  -3.86353 
 C                    -7.49407   0.5998   -1.28369 
 C                    -7.01631   0.60251   1.16644 
 C                    -7.59947  -1.51577   0.01111 
 C                     0.19655   2.9056   -3.83226 
 C                    -1.24701   4.34282  -1.73191 
 C                    -0.58901   4.17142  -4.14231 
 C                    -1.74982   4.33741  -3.16997 
 H                     5.21791  -3.15952  -1.89584 
 H                    -5.41095  -2.53389  -0.4342 
 H                     5.07169   1.0053   -2.82753 
 H                    -4.92336   1.70609  -0.53758 
 H                     3.14767   2.19066  -2.77201 
 H                    -2.95899   2.67958  -0.94331 
 H                     1.46986   3.6922   -2.27043 
 H                     0.03558   3.24636  -0.39631 
 H                     1.03103  -4.91692  -1.80325 
 H                     0.69053  -3.21199  -2.1543 
 H                     1.83573  -4.11509  -3.15808 
 H                     2.89459  -3.13767   0.92439 
 H                     1.36432  -2.53317   0.26453 
 H                     1.57544  -4.2631    0.58188 
 H                     3.07468  -5.63655  -0.78522 
 H                     4.01527  -4.98309  -2.12689 
 H                     4.43451  -4.56271  -0.45828 
 H                    -1.38034  -4.61252  -0.07802 
 H                    -0.90233  -2.90513  -0.10023 
 H                    -2.10535  -3.47996   1.06805 
 H                    -3.4945   -5.36627  -0.89621 
 H                    -4.36841  -4.34323   0.24475 
 H                    -4.76129  -4.28921  -1.48129 
 H                    -3.1268   -3.33693  -3.13606 
 H                    -1.53803  -2.7472   -2.6194 
 H                    -1.91323  -4.47534  -2.53927 
 H                     8.47744   0.06289  -3.36951 
 H                     6.92793   0.55169  -4.05807 
 H                     7.30609   0.92511  -2.36993 
 H                     8.66253  -1.74153  -1.69328 
 H                     7.46625  -0.96311  -0.64731 
 H                     7.24617  -2.64407  -1.14958 
 H                     6.68743  -3.18292  -3.60025 
 H                     6.53412  -1.87149  -4.77546 
 H                     8.11829  -2.27519  -4.09708 
 H                    -8.56005   0.76253  -1.09108 
 H                    -7.02797   1.58149  -1.4093 
 H                    -7.40394   0.06359  -2.2339 
 H                    -6.57501   0.06872   2.01434 
 H                    -6.53806   1.58445   1.1049 
 H                    -8.07666   0.76475   1.38836 
 H                    -8.65603  -1.32232   0.21997 
 H                    -7.55138  -2.11926  -0.90075 
 H                    -7.20765  -2.11965   0.83561 
 H                    -0.44948   2.02685  -3.96542 
 H                     1.04087   2.77752  -4.51756 
 H                    -0.59465   5.21164  -1.58065 
 H                    -2.06611   4.46414  -1.0172 
 H                    -0.9504    4.14017  -5.17481 
 H                     0.07504   5.04369  -4.07051 
 H                    -2.29653   5.26334  -3.37327 
 H                    -2.46536   3.51734  -3.31489 
 H                     0.41002   0.59362  -0.07293 
 Cl                    0.73021  -0.87316  -5.85904 
 
 Add virtual bond connecting atoms Cl95       and H86        Dist= 6.91D+00.

 GradGradGradGradGradGradGradGradGradGradGradGradGradGradGradGradGradGrad
 Berny optimization.
 Initialization pass.
                           ----------------------------
                           !    Initial Parameters    !
                           ! (Angstroms and Degrees)  !
 --------------------------                            --------------------------
 ! Name  Definition              Value          Derivative Info.                !
 --------------------------------------------------------------------------------
 ! R1    R(1,2)                  1.8975         calculate D2E/DX2 analytically  !
 ! R2    R(1,3)                  1.8933         calculate D2E/DX2 analytically  !
 ! R3    R(1,4)                  1.874          calculate D2E/DX2 analytically  !
 ! R4    R(1,5)                  1.8842         calculate D2E/DX2 analytically  !
 ! R5    R(1,94)                 1.4376         calculate D2E/DX2 analytically  !
 ! R6    R(2,8)                  1.2973         calculate D2E/DX2 analytically  !
 ! R7    R(3,9)                  1.3            calculate D2E/DX2 analytically  !
 ! R8    R(4,22)                 1.2975         calculate D2E/DX2 analytically  !
 ! R9    R(4,24)                 1.4686         calculate D2E/DX2 analytically  !
 ! R10   R(5,23)                 1.2953         calculate D2E/DX2 analytically  !
 ! R11   R(5,25)                 1.4832         calculate D2E/DX2 analytically  !
 ! R12   R(6,8)                  1.438          calculate D2E/DX2 analytically  !
 ! R13   R(6,14)                 1.5321         calculate D2E/DX2 analytically  !
 ! R14   R(6,16)                 1.3841         calculate D2E/DX2 analytically  !
 ! R15   R(7,9)                  1.4334         calculate D2E/DX2 analytically  !
 ! R16   R(7,15)                 1.5333         calculate D2E/DX2 analytically  !
 ! R17   R(7,17)                 1.3895         calculate D2E/DX2 analytically  !
 ! R18   R(8,10)                 1.4307         calculate D2E/DX2 analytically  !
 ! R19   R(9,11)                 1.4317         calculate D2E/DX2 analytically  !
 ! R20   R(10,18)                1.4138         calculate D2E/DX2 analytically  !
 ! R21   R(10,22)                1.426          calculate D2E/DX2 analytically  !
 ! R22   R(11,19)                1.4091         calculate D2E/DX2 analytically  !
 ! R23   R(11,23)                1.4307         calculate D2E/DX2 analytically  !
 ! R24   R(12,16)                1.4145         calculate D2E/DX2 analytically  !
 ! R25   R(12,18)                1.3768         calculate D2E/DX2 analytically  !
 ! R26   R(12,20)                1.5274         calculate D2E/DX2 analytically  !
 ! R27   R(13,17)                1.4094         calculate D2E/DX2 analytically  !
 ! R28   R(13,19)                1.3812         calculate D2E/DX2 analytically  !
 ! R29   R(13,21)                1.5308         calculate D2E/DX2 analytically  !
 ! R30   R(14,26)                1.5366         calculate D2E/DX2 analytically  !
 ! R31   R(14,27)                1.5372         calculate D2E/DX2 analytically  !
 ! R32   R(14,28)                1.5297         calculate D2E/DX2 analytically  !
 ! R33   R(15,29)                1.5363         calculate D2E/DX2 analytically  !
 ! R34   R(15,30)                1.53           calculate D2E/DX2 analytically  !
 ! R35   R(15,31)                1.5374         calculate D2E/DX2 analytically  !
 ! R36   R(16,42)                1.0853         calculate D2E/DX2 analytically  !
 ! R37   R(17,43)                1.0828         calculate D2E/DX2 analytically  !
 ! R38   R(18,44)                1.0864         calculate D2E/DX2 analytically  !
 ! R39   R(19,45)                1.0886         calculate D2E/DX2 analytically  !
 ! R40   R(20,32)                1.5271         calculate D2E/DX2 analytically  !
 ! R41   R(20,33)                1.5347         calculate D2E/DX2 analytically  !
 ! R42   R(20,34)                1.5347         calculate D2E/DX2 analytically  !
 ! R43   R(21,35)                1.5344         calculate D2E/DX2 analytically  !
 ! R44   R(21,36)                1.5345         calculate D2E/DX2 analytically  !
 ! R45   R(21,37)                1.528          calculate D2E/DX2 analytically  !
 ! R46   R(22,46)                1.0948         calculate D2E/DX2 analytically  !
 ! R47   R(23,47)                1.0923         calculate D2E/DX2 analytically  !
 ! R48   R(24,25)                1.5289         calculate D2E/DX2 analytically  !
 ! R49   R(24,38)                1.5296         calculate D2E/DX2 analytically  !
 ! R50   R(24,48)                1.0975         calculate D2E/DX2 analytically  !
 ! R51   R(25,39)                1.5228         calculate D2E/DX2 analytically  !
 ! R52   R(25,49)                1.0979         calculate D2E/DX2 analytically  !
 ! R53   R(26,50)                1.0959         calculate D2E/DX2 analytically  !
 ! R54   R(26,51)                1.0895         calculate D2E/DX2 analytically  !
 ! R55   R(26,52)                1.0957         calculate D2E/DX2 analytically  !
 ! R56   R(27,53)                1.0955         calculate D2E/DX2 analytically  !
 ! R57   R(27,54)                1.0911         calculate D2E/DX2 analytically  !
 ! R58   R(27,55)                1.0957         calculate D2E/DX2 analytically  !
 ! R59   R(28,56)                1.0943         calculate D2E/DX2 analytically  !
 ! R60   R(28,57)                1.0948         calculate D2E/DX2 analytically  !
 ! R61   R(28,58)                1.0947         calculate D2E/DX2 analytically  !
 ! R62   R(29,59)                1.0959         calculate D2E/DX2 analytically  !
 ! R63   R(29,60)                1.0895         calculate D2E/DX2 analytically  !
 ! R64   R(29,61)                1.0957         calculate D2E/DX2 analytically  !
 ! R65   R(30,62)                1.0943         calculate D2E/DX2 analytically  !
 ! R66   R(30,63)                1.0949         calculate D2E/DX2 analytically  !
 ! R67   R(30,64)                1.0945         calculate D2E/DX2 analytically  !
 ! R68   R(31,65)                1.0954         calculate D2E/DX2 analytically  !
 ! R69   R(31,66)                1.091          calculate D2E/DX2 analytically  !
 ! R70   R(31,67)                1.0958         calculate D2E/DX2 analytically  !
 ! R71   R(32,68)                1.0942         calculate D2E/DX2 analytically  !
 ! R72   R(32,69)                1.0944         calculate D2E/DX2 analytically  !
 ! R73   R(32,70)                1.0946         calculate D2E/DX2 analytically  !
 ! R74   R(33,71)                1.0953         calculate D2E/DX2 analytically  !
 ! R75   R(33,72)                1.0949         calculate D2E/DX2 analytically  !
 ! R76   R(33,73)                1.094          calculate D2E/DX2 analytically  !
 ! R77   R(34,74)                1.094          calculate D2E/DX2 analytically  !
 ! R78   R(34,75)                1.0947         calculate D2E/DX2 analytically  !
 ! R79   R(34,76)                1.0953         calculate D2E/DX2 analytically  !
 ! R80   R(35,77)                1.0954         calculate D2E/DX2 analytically  !
 ! R81   R(35,78)                1.094          calculate D2E/DX2 analytically  !
 ! R82   R(35,79)                1.0948         calculate D2E/DX2 analytically  !
 ! R83   R(36,80)                1.0948         calculate D2E/DX2 analytically  !
 ! R84   R(36,81)                1.0939         calculate D2E/DX2 analytically  !
 ! R85   R(36,82)                1.0954         calculate D2E/DX2 analytically  !
 ! R86   R(37,83)                1.0942         calculate D2E/DX2 analytically  !
 ! R87   R(37,84)                1.0945         calculate D2E/DX2 analytically  !
 ! R88   R(37,85)                1.0945         calculate D2E/DX2 analytically  !
 ! R89   R(38,40)                1.5217         calculate D2E/DX2 analytically  !
 ! R90   R(38,86)                1.0988         calculate D2E/DX2 analytically  !
 ! R91   R(38,87)                1.095          calculate D2E/DX2 analytically  !
 ! R92   R(39,41)                1.5234         calculate D2E/DX2 analytically  !
 ! R93   R(39,88)                1.097          calculate D2E/DX2 analytically  !
 ! R94   R(39,89)                1.0938         calculate D2E/DX2 analytically  !
 ! R95   R(40,41)                1.5233         calculate D2E/DX2 analytically  !
 ! R96   R(40,90)                1.0944         calculate D2E/DX2 analytically  !
 ! R97   R(40,91)                1.0986         calculate D2E/DX2 analytically  !
 ! R98   R(41,92)                1.0943         calculate D2E/DX2 analytically  !
 ! R99   R(41,93)                1.098          calculate D2E/DX2 analytically  !
 ! R100  R(86,95)                3.6589         calculate D2E/DX2 analytically  !
 ! A1    A(2,1,3)               86.0878         calculate D2E/DX2 analytically  !
 ! A2    A(2,1,4)               93.3815         calculate D2E/DX2 analytically  !
 ! A3    A(2,1,94)              91.9101         calculate D2E/DX2 analytically  !
 ! A4    A(3,1,5)               94.2071         calculate D2E/DX2 analytically  !
 ! A5    A(3,1,94)              97.5594         calculate D2E/DX2 analytically  !
 ! A6    A(4,1,5)               86.2784         calculate D2E/DX2 analytically  !
 ! A7    A(4,1,94)              93.0421         calculate D2E/DX2 analytically  !
 ! A8    A(5,1,94)              88.3223         calculate D2E/DX2 analytically  !
 ! A9    A(1,2,8)              128.1434         calculate D2E/DX2 analytically  !
 ! A10   A(1,3,9)              128.3993         calculate D2E/DX2 analytically  !
 ! A11   A(1,4,22)             126.8717         calculate D2E/DX2 analytically  !
 ! A12   A(1,4,24)             112.7436         calculate D2E/DX2 analytically  !
 ! A13   A(22,4,24)            120.0841         calculate D2E/DX2 analytically  !
 ! A14   A(1,5,23)             125.8945         calculate D2E/DX2 analytically  !
 ! A15   A(1,5,25)             111.5624         calculate D2E/DX2 analytically  !
 ! A16   A(23,5,25)            121.9273         calculate D2E/DX2 analytically  !
 ! A17   A(8,6,14)             120.1663         calculate D2E/DX2 analytically  !
 ! A18   A(8,6,16)             118.2359         calculate D2E/DX2 analytically  !
 ! A19   A(14,6,16)            121.5896         calculate D2E/DX2 analytically  !
 ! A20   A(9,7,15)             120.2485         calculate D2E/DX2 analytically  !
 ! A21   A(9,7,17)             118.3973         calculate D2E/DX2 analytically  !
 ! A22   A(15,7,17)            121.3286         calculate D2E/DX2 analytically  !
 ! A23   A(2,8,6)              119.1418         calculate D2E/DX2 analytically  !
 ! A24   A(2,8,10)             123.1116         calculate D2E/DX2 analytically  !
 ! A25   A(6,8,10)             117.7354         calculate D2E/DX2 analytically  !
 ! A26   A(3,9,7)              119.394          calculate D2E/DX2 analytically  !
 ! A27   A(3,9,11)             122.8029         calculate D2E/DX2 analytically  !
 ! A28   A(7,9,11)             117.7983         calculate D2E/DX2 analytically  !
 ! A29   A(8,10,18)            120.7509         calculate D2E/DX2 analytically  !
 ! A30   A(8,10,22)            121.9098         calculate D2E/DX2 analytically  !
 ! A31   A(18,10,22)           117.3187         calculate D2E/DX2 analytically  !
 ! A32   A(9,11,19)            120.4913         calculate D2E/DX2 analytically  !
 ! A33   A(9,11,23)            122.5013         calculate D2E/DX2 analytically  !
 ! A34   A(19,11,23)           117.0042         calculate D2E/DX2 analytically  !
 ! A35   A(16,12,18)           116.7458         calculate D2E/DX2 analytically  !
 ! A36   A(16,12,20)           119.4375         calculate D2E/DX2 analytically  !
 ! A37   A(18,12,20)           123.8167         calculate D2E/DX2 analytically  !
 ! A38   A(17,13,19)           116.5786         calculate D2E/DX2 analytically  !
 ! A39   A(17,13,21)           122.976          calculate D2E/DX2 analytically  !
 ! A40   A(19,13,21)           120.443          calculate D2E/DX2 analytically  !
 ! A41   A(6,14,26)            110.7132         calculate D2E/DX2 analytically  !
 ! A42   A(6,14,27)            109.3949         calculate D2E/DX2 analytically  !
 ! A43   A(6,14,28)            112.0146         calculate D2E/DX2 analytically  !
 ! A44   A(26,14,27)           109.7366         calculate D2E/DX2 analytically  !
 ! A45   A(26,14,28)           107.4251         calculate D2E/DX2 analytically  !
 ! A46   A(27,14,28)           107.4757         calculate D2E/DX2 analytically  !
 ! A47   A(7,15,29)            111.012          calculate D2E/DX2 analytically  !
 ! A48   A(7,15,30)            112.0832         calculate D2E/DX2 analytically  !
 ! A49   A(7,15,31)            109.2899         calculate D2E/DX2 analytically  !
 ! A50   A(29,15,30)           107.3274         calculate D2E/DX2 analytically  !
 ! A51   A(29,15,31)           109.6097         calculate D2E/DX2 analytically  !
 ! A52   A(30,15,31)           107.4237         calculate D2E/DX2 analytically  !
 ! A53   A(6,16,12)            124.7021         calculate D2E/DX2 analytically  !
 ! A54   A(6,16,42)            118.1114         calculate D2E/DX2 analytically  !
 ! A55   A(12,16,42)           117.1864         calculate D2E/DX2 analytically  !
 ! A56   A(7,17,13)            124.5153         calculate D2E/DX2 analytically  !
 ! A57   A(7,17,43)            117.7113         calculate D2E/DX2 analytically  !
 ! A58   A(13,17,43)           117.773          calculate D2E/DX2 analytically  !
 ! A59   A(10,18,12)           121.8097         calculate D2E/DX2 analytically  !
 ! A60   A(10,18,44)           117.1773         calculate D2E/DX2 analytically  !
 ! A61   A(12,18,44)           121.0128         calculate D2E/DX2 analytically  !
 ! A62   A(11,19,13)           122.163          calculate D2E/DX2 analytically  !
 ! A63   A(11,19,45)           117.398          calculate D2E/DX2 analytically  !
 ! A64   A(13,19,45)           120.4386         calculate D2E/DX2 analytically  !
 ! A65   A(12,20,32)           111.9332         calculate D2E/DX2 analytically  !
 ! A66   A(12,20,33)           109.5903         calculate D2E/DX2 analytically  !
 ! A67   A(12,20,34)           109.4698         calculate D2E/DX2 analytically  !
 ! A68   A(32,20,33)           108.4264         calculate D2E/DX2 analytically  !
 ! A69   A(32,20,34)           108.4534         calculate D2E/DX2 analytically  !
 ! A70   A(33,20,34)           108.9102         calculate D2E/DX2 analytically  !
 ! A71   A(13,21,35)           109.5231         calculate D2E/DX2 analytically  !
 ! A72   A(13,21,36)           109.4648         calculate D2E/DX2 analytically  !
 ! A73   A(13,21,37)           112.2944         calculate D2E/DX2 analytically  !
 ! A74   A(35,21,36)           108.8635         calculate D2E/DX2 analytically  !
 ! A75   A(35,21,37)           108.3234         calculate D2E/DX2 analytically  !
 ! A76   A(36,21,37)           108.3034         calculate D2E/DX2 analytically  !
 ! A77   A(4,22,10)            125.7061         calculate D2E/DX2 analytically  !
 ! A78   A(4,22,46)            117.5933         calculate D2E/DX2 analytically  !
 ! A79   A(10,22,46)           116.6992         calculate D2E/DX2 analytically  !
 ! A80   A(5,23,11)            126.0416         calculate D2E/DX2 analytically  !
 ! A81   A(5,23,47)            118.4657         calculate D2E/DX2 analytically  !
 ! A82   A(11,23,47)           115.4918         calculate D2E/DX2 analytically  !
 ! A83   A(4,24,25)            106.5361         calculate D2E/DX2 analytically  !
 ! A84   A(4,24,38)            109.73           calculate D2E/DX2 analytically  !
 ! A85   A(4,24,48)            109.8714         calculate D2E/DX2 analytically  !
 ! A86   A(25,24,38)           111.4268         calculate D2E/DX2 analytically  !
 ! A87   A(25,24,48)           109.4673         calculate D2E/DX2 analytically  !
 ! A88   A(38,24,48)           109.7558         calculate D2E/DX2 analytically  !
 ! A89   A(5,25,24)            105.3774         calculate D2E/DX2 analytically  !
 ! A90   A(5,25,39)            116.6592         calculate D2E/DX2 analytically  !
 ! A91   A(5,25,49)            105.4178         calculate D2E/DX2 analytically  !
 ! A92   A(24,25,39)           111.6517         calculate D2E/DX2 analytically  !
 ! A93   A(24,25,49)           107.9135         calculate D2E/DX2 analytically  !
 ! A94   A(39,25,49)           109.3284         calculate D2E/DX2 analytically  !
 ! A95   A(14,26,50)           109.9584         calculate D2E/DX2 analytically  !
 ! A96   A(14,26,51)           111.5172         calculate D2E/DX2 analytically  !
 ! A97   A(14,26,52)           110.9526         calculate D2E/DX2 analytically  !
 ! A98   A(50,26,51)           108.5044         calculate D2E/DX2 analytically  !
 ! A99   A(50,26,52)           107.5541         calculate D2E/DX2 analytically  !
 ! A100  A(51,26,52)           108.2313         calculate D2E/DX2 analytically  !
 ! A101  A(14,27,53)           110.739          calculate D2E/DX2 analytically  !
 ! A102  A(14,27,54)           111.5895         calculate D2E/DX2 analytically  !
 ! A103  A(14,27,55)           110.3072         calculate D2E/DX2 analytically  !
 ! A104  A(53,27,54)           108.3364         calculate D2E/DX2 analytically  !
 ! A105  A(53,27,55)           107.5367         calculate D2E/DX2 analytically  !
 ! A106  A(54,27,55)           108.1992         calculate D2E/DX2 analytically  !
 ! A107  A(14,28,56)           109.274          calculate D2E/DX2 analytically  !
 ! A108  A(14,28,57)           112.2345         calculate D2E/DX2 analytically  !
 ! A109  A(14,28,58)           112.4149         calculate D2E/DX2 analytically  !
 ! A110  A(56,28,57)           107.3783         calculate D2E/DX2 analytically  !
 ! A111  A(56,28,58)           107.3232         calculate D2E/DX2 analytically  !
 ! A112  A(57,28,58)           107.9781         calculate D2E/DX2 analytically  !
 ! A113  A(15,29,59)           109.9149         calculate D2E/DX2 analytically  !
 ! A114  A(15,29,60)           111.5094         calculate D2E/DX2 analytically  !
 ! A115  A(15,29,61)           110.9516         calculate D2E/DX2 analytically  !
 ! A116  A(59,29,60)           108.4612         calculate D2E/DX2 analytically  !
 ! A117  A(59,29,61)           107.4503         calculate D2E/DX2 analytically  !
 ! A118  A(60,29,61)           108.4289         calculate D2E/DX2 analytically  !
 ! A119  A(15,30,62)           109.2337         calculate D2E/DX2 analytically  !
 ! A120  A(15,30,63)           112.2609         calculate D2E/DX2 analytically  !
 ! A121  A(15,30,64)           112.4563         calculate D2E/DX2 analytically  !
 ! A122  A(62,30,63)           107.3831         calculate D2E/DX2 analytically  !
 ! A123  A(62,30,64)           107.2849         calculate D2E/DX2 analytically  !
 ! A124  A(63,30,64)           107.9801         calculate D2E/DX2 analytically  !
 ! A125  A(15,31,65)           110.7723         calculate D2E/DX2 analytically  !
 ! A126  A(15,31,66)           111.7153         calculate D2E/DX2 analytically  !
 ! A127  A(15,31,67)           110.2977         calculate D2E/DX2 analytically  !
 ! A128  A(65,31,66)           108.2594         calculate D2E/DX2 analytically  !
 ! A129  A(65,31,67)           107.5596         calculate D2E/DX2 analytically  !
 ! A130  A(66,31,67)           108.0959         calculate D2E/DX2 analytically  !
 ! A131  A(20,32,68)           109.8834         calculate D2E/DX2 analytically  !
 ! A132  A(20,32,69)           111.9578         calculate D2E/DX2 analytically  !
 ! A133  A(20,32,70)           111.9574         calculate D2E/DX2 analytically  !
 ! A134  A(68,32,69)           107.4652         calculate D2E/DX2 analytically  !
 ! A135  A(68,32,70)           107.4716         calculate D2E/DX2 analytically  !
 ! A136  A(69,32,70)           107.8983         calculate D2E/DX2 analytically  !
 ! A137  A(20,33,71)           110.5531         calculate D2E/DX2 analytically  !
 ! A138  A(20,33,72)           111.2198         calculate D2E/DX2 analytically  !
 ! A139  A(20,33,73)           111.8608         calculate D2E/DX2 analytically  !
 ! A140  A(71,33,72)           107.7908         calculate D2E/DX2 analytically  !
 ! A141  A(71,33,73)           107.4774         calculate D2E/DX2 analytically  !
 ! A142  A(72,33,73)           107.7586         calculate D2E/DX2 analytically  !
 ! A143  A(20,34,74)           111.8111         calculate D2E/DX2 analytically  !
 ! A144  A(20,34,75)           111.1875         calculate D2E/DX2 analytically  !
 ! A145  A(20,34,76)           110.5819         calculate D2E/DX2 analytically  !
 ! A146  A(74,34,75)           107.7229         calculate D2E/DX2 analytically  !
 ! A147  A(74,34,76)           107.521          calculate D2E/DX2 analytically  !
 ! A148  A(75,34,76)           107.8403         calculate D2E/DX2 analytically  !
 ! A149  A(21,35,77)           110.6315         calculate D2E/DX2 analytically  !
 ! A150  A(21,35,78)           111.7297         calculate D2E/DX2 analytically  !
 ! A151  A(21,35,79)           111.2229         calculate D2E/DX2 analytically  !
 ! A152  A(77,35,78)           107.5478         calculate D2E/DX2 analytically  !
 ! A153  A(77,35,79)           107.7873         calculate D2E/DX2 analytically  !
 ! A154  A(78,35,79)           107.7452         calculate D2E/DX2 analytically  !
 ! A155  A(21,36,80)           111.2343         calculate D2E/DX2 analytically  !
 ! A156  A(21,36,81)           111.7013         calculate D2E/DX2 analytically  !
 ! A157  A(21,36,82)           110.6284         calculate D2E/DX2 analytically  !
 ! A158  A(80,36,81)           107.7577         calculate D2E/DX2 analytically  !
 ! A159  A(80,36,82)           107.7877         calculate D2E/DX2 analytically  !
 ! A160  A(81,36,82)           107.5562         calculate D2E/DX2 analytically  !
 ! A161  A(21,37,83)           109.7274         calculate D2E/DX2 analytically  !
 ! A162  A(21,37,84)           112.0867         calculate D2E/DX2 analytically  !
 ! A163  A(21,37,85)           112.0771         calculate D2E/DX2 analytically  !
 ! A164  A(83,37,84)           107.3924         calculate D2E/DX2 analytically  !
 ! A165  A(83,37,85)           107.4213         calculate D2E/DX2 analytically  !
 ! A166  A(84,37,85)           107.9167         calculate D2E/DX2 analytically  !
 ! A167  A(24,38,40)           111.672          calculate D2E/DX2 analytically  !
 ! A168  A(24,38,86)           108.218          calculate D2E/DX2 analytically  !
 ! A169  A(24,38,87)           108.9841         calculate D2E/DX2 analytically  !
 ! A170  A(40,38,86)           109.6978         calculate D2E/DX2 analytically  !
 ! A171  A(40,38,87)           111.5836         calculate D2E/DX2 analytically  !
 ! A172  A(86,38,87)           106.4976         calculate D2E/DX2 analytically  !
 ! A173  A(25,39,41)           112.9612         calculate D2E/DX2 analytically  !
 ! A174  A(25,39,88)           106.4116         calculate D2E/DX2 analytically  !
 ! A175  A(25,39,89)           110.5963         calculate D2E/DX2 analytically  !
 ! A176  A(41,39,88)           109.2237         calculate D2E/DX2 analytically  !
 ! A177  A(41,39,89)           111.7173         calculate D2E/DX2 analytically  !
 ! A178  A(88,39,89)           105.5089         calculate D2E/DX2 analytically  !
 ! A179  A(38,40,41)           110.731          calculate D2E/DX2 analytically  !
 ! A180  A(38,40,90)           109.8138         calculate D2E/DX2 analytically  !
 ! A181  A(38,40,91)           109.5795         calculate D2E/DX2 analytically  !
 ! A182  A(41,40,90)           110.7127         calculate D2E/DX2 analytically  !
 ! A183  A(41,40,91)           109.4127         calculate D2E/DX2 analytically  !
 ! A184  A(90,40,91)           106.4948         calculate D2E/DX2 analytically  !
 ! A185  A(39,41,40)           110.5734         calculate D2E/DX2 analytically  !
 ! A186  A(39,41,92)           109.7089         calculate D2E/DX2 analytically  !
 ! A187  A(39,41,93)           110.0194         calculate D2E/DX2 analytically  !
 ! A188  A(40,41,92)           110.7515         calculate D2E/DX2 analytically  !
 ! A189  A(40,41,93)           109.3285         calculate D2E/DX2 analytically  !
 ! A190  A(92,41,93)           106.3717         calculate D2E/DX2 analytically  !
 ! A191  A(38,86,95)           120.4666         calculate D2E/DX2 analytically  !
 ! A192  L(2,1,5,3,-1)         180.2949         calculate D2E/DX2 analytically  !
 ! A193  L(3,1,4,2,-1)         179.4693         calculate D2E/DX2 analytically  !
 ! A194  L(2,1,5,3,-2)         180.2737         calculate D2E/DX2 analytically  !
 ! A195  L(3,1,4,2,-2)         169.3882         calculate D2E/DX2 analytically  !
 ! D1    D(3,1,2,8)            179.6419         calculate D2E/DX2 analytically  !
 ! D2    D(4,1,2,8)             10.2536         calculate D2E/DX2 analytically  !
 ! D3    D(94,1,2,8)           -82.9086         calculate D2E/DX2 analytically  !
 ! D4    D(2,1,3,9)           -179.535          calculate D2E/DX2 analytically  !
 ! D5    D(5,1,3,9)              0.1913         calculate D2E/DX2 analytically  !
 ! D6    D(94,1,3,9)            89.0539         calculate D2E/DX2 analytically  !
 ! D7    D(2,1,4,22)            -4.2853         calculate D2E/DX2 analytically  !
 ! D8    D(2,1,4,24)           169.361          calculate D2E/DX2 analytically  !
 ! D9    D(5,1,4,22)           175.9292         calculate D2E/DX2 analytically  !
 ! D10   D(5,1,4,24)           -10.4245         calculate D2E/DX2 analytically  !
 ! D11   D(94,1,4,22)           87.8109         calculate D2E/DX2 analytically  !
 ! D12   D(94,1,4,24)          -98.5428         calculate D2E/DX2 analytically  !
 ! D13   D(3,1,5,23)             3.2655         calculate D2E/DX2 analytically  !
 ! D14   D(3,1,5,25)           174.3563         calculate D2E/DX2 analytically  !
 ! D15   D(4,1,5,23)           172.6476         calculate D2E/DX2 analytically  !
 ! D16   D(4,1,5,25)           -16.2615         calculate D2E/DX2 analytically  !
 ! D17   D(94,1,5,23)          -94.1932         calculate D2E/DX2 analytically  !
 ! D18   D(94,1,5,25)           76.8976         calculate D2E/DX2 analytically  !
 ! D19   D(1,2,8,6)            171.3072         calculate D2E/DX2 analytically  !
 ! D20   D(1,2,8,10)            -9.9349         calculate D2E/DX2 analytically  !
 ! D21   D(1,3,9,7)            176.4551         calculate D2E/DX2 analytically  !
 ! D22   D(1,3,9,11)            -2.7334         calculate D2E/DX2 analytically  !
 ! D23   D(1,4,22,10)           -1.8939         calculate D2E/DX2 analytically  !
 ! D24   D(1,4,22,46)          177.6532         calculate D2E/DX2 analytically  !
 ! D25   D(24,4,22,10)        -175.1201         calculate D2E/DX2 analytically  !
 ! D26   D(24,4,22,46)           4.427          calculate D2E/DX2 analytically  !
 ! D27   D(1,4,24,25)           33.2196         calculate D2E/DX2 analytically  !
 ! D28   D(1,4,24,38)          -87.5323         calculate D2E/DX2 analytically  !
 ! D29   D(1,4,24,48)          151.7071         calculate D2E/DX2 analytically  !
 ! D30   D(22,4,24,25)        -152.6528         calculate D2E/DX2 analytically  !
 ! D31   D(22,4,24,38)          86.5954         calculate D2E/DX2 analytically  !
 ! D32   D(22,4,24,48)         -34.1653         calculate D2E/DX2 analytically  !
 ! D33   D(1,5,23,11)           -4.3536         calculate D2E/DX2 analytically  !
 ! D34   D(1,5,23,47)          176.0099         calculate D2E/DX2 analytically  !
 ! D35   D(25,5,23,11)        -174.583          calculate D2E/DX2 analytically  !
 ! D36   D(25,5,23,47)           5.7805         calculate D2E/DX2 analytically  !
 ! D37   D(1,5,25,24)           37.3            calculate D2E/DX2 analytically  !
 ! D38   D(1,5,25,39)          161.7896         calculate D2E/DX2 analytically  !
 ! D39   D(1,5,25,49)          -76.7011         calculate D2E/DX2 analytically  !
 ! D40   D(23,5,25,24)        -151.2007         calculate D2E/DX2 analytically  !
 ! D41   D(23,5,25,39)         -26.7111         calculate D2E/DX2 analytically  !
 ! D42   D(23,5,25,49)          94.7982         calculate D2E/DX2 analytically  !
 ! D43   D(14,6,8,2)            -3.6873         calculate D2E/DX2 analytically  !
 ! D44   D(14,6,8,10)          177.4881         calculate D2E/DX2 analytically  !
 ! D45   D(16,6,8,2)           177.3394         calculate D2E/DX2 analytically  !
 ! D46   D(16,6,8,10)           -1.4851         calculate D2E/DX2 analytically  !
 ! D47   D(8,6,14,26)           59.5852         calculate D2E/DX2 analytically  !
 ! D48   D(8,6,14,27)          -61.4709         calculate D2E/DX2 analytically  !
 ! D49   D(8,6,14,28)          179.4674         calculate D2E/DX2 analytically  !
 ! D50   D(16,6,14,26)        -121.4767         calculate D2E/DX2 analytically  !
 ! D51   D(16,6,14,27)         117.4672         calculate D2E/DX2 analytically  !
 ! D52   D(16,6,14,28)          -1.5945         calculate D2E/DX2 analytically  !
 ! D53   D(8,6,16,12)            0.4792         calculate D2E/DX2 analytically  !
 ! D54   D(8,6,16,42)         -179.6756         calculate D2E/DX2 analytically  !
 ! D55   D(14,6,16,12)        -178.4787         calculate D2E/DX2 analytically  !
 ! D56   D(14,6,16,42)           1.3664         calculate D2E/DX2 analytically  !
 ! D57   D(15,7,9,3)            -3.5019         calculate D2E/DX2 analytically  !
 ! D58   D(15,7,9,11)          175.7271         calculate D2E/DX2 analytically  !
 ! D59   D(17,7,9,3)           178.3121         calculate D2E/DX2 analytically  !
 ! D60   D(17,7,9,11)           -2.4589         calculate D2E/DX2 analytically  !
 ! D61   D(9,7,15,29)           59.053          calculate D2E/DX2 analytically  !
 ! D62   D(9,7,15,30)          179.0625         calculate D2E/DX2 analytically  !
 ! D63   D(9,7,15,31)          -61.9669         calculate D2E/DX2 analytically  !
 ! D64   D(17,7,15,29)        -122.8151         calculate D2E/DX2 analytically  !
 ! D65   D(17,7,15,30)          -2.8056         calculate D2E/DX2 analytically  !
 ! D66   D(17,7,15,31)         116.165          calculate D2E/DX2 analytically  !
 ! D67   D(9,7,17,13)            0.7437         calculate D2E/DX2 analytically  !
 ! D68   D(9,7,17,43)         -179.4789         calculate D2E/DX2 analytically  !
 ! D69   D(15,7,17,13)        -177.4218         calculate D2E/DX2 analytically  !
 ! D70   D(15,7,17,43)           2.3556         calculate D2E/DX2 analytically  !
 ! D71   D(2,8,10,18)         -177.1576         calculate D2E/DX2 analytically  !
 ! D72   D(2,8,10,22)            1.1465         calculate D2E/DX2 analytically  !
 ! D73   D(6,8,10,18)            1.6167         calculate D2E/DX2 analytically  !
 ! D74   D(6,8,10,22)          179.9208         calculate D2E/DX2 analytically  !
 ! D75   D(3,9,11,19)         -178.2746         calculate D2E/DX2 analytically  !
 ! D76   D(3,9,11,23)            2.4022         calculate D2E/DX2 analytically  !
 ! D77   D(7,9,11,19)            2.5246         calculate D2E/DX2 analytically  !
 ! D78   D(7,9,11,23)         -176.7985         calculate D2E/DX2 analytically  !
 ! D79   D(8,10,18,12)          -0.6967         calculate D2E/DX2 analytically  !
 ! D80   D(8,10,18,44)         179.1364         calculate D2E/DX2 analytically  !
 ! D81   D(22,10,18,12)       -179.0764         calculate D2E/DX2 analytically  !
 ! D82   D(22,10,18,44)          0.7567         calculate D2E/DX2 analytically  !
 ! D83   D(8,10,22,4)            5.0344         calculate D2E/DX2 analytically  !
 ! D84   D(8,10,22,46)        -174.5164         calculate D2E/DX2 analytically  !
 ! D85   D(18,10,22,4)        -176.606          calculate D2E/DX2 analytically  !
 ! D86   D(18,10,22,46)          3.8433         calculate D2E/DX2 analytically  !
 ! D87   D(9,11,19,13)          -0.8001         calculate D2E/DX2 analytically  !
 ! D88   D(9,11,19,45)         179.4374         calculate D2E/DX2 analytically  !
 ! D89   D(23,11,19,13)        178.5592         calculate D2E/DX2 analytically  !
 ! D90   D(23,11,19,45)         -1.2033         calculate D2E/DX2 analytically  !
 ! D91   D(9,11,23,5)            1.3264         calculate D2E/DX2 analytically  !
 ! D92   D(9,11,23,47)        -179.0276         calculate D2E/DX2 analytically  !
 ! D93   D(19,11,23,5)        -178.019          calculate D2E/DX2 analytically  !
 ! D94   D(19,11,23,47)          1.627          calculate D2E/DX2 analytically  !
 ! D95   D(18,12,16,6)           0.4635         calculate D2E/DX2 analytically  !
 ! D96   D(18,12,16,42)       -179.383          calculate D2E/DX2 analytically  !
 ! D97   D(20,12,16,6)        -179.625          calculate D2E/DX2 analytically  !
 ! D98   D(20,12,16,42)          0.5286         calculate D2E/DX2 analytically  !
 ! D99   D(16,12,18,10)         -0.3526         calculate D2E/DX2 analytically  !
 ! D100  D(16,12,18,44)        179.8206         calculate D2E/DX2 analytically  !
 ! D101  D(20,12,18,10)        179.74           calculate D2E/DX2 analytically  !
 ! D102  D(20,12,18,44)         -0.0867         calculate D2E/DX2 analytically  !
 ! D103  D(16,12,20,32)       -179.4736         calculate D2E/DX2 analytically  !
 ! D104  D(16,12,20,33)        -59.1426         calculate D2E/DX2 analytically  !
 ! D105  D(16,12,20,34)         60.2427         calculate D2E/DX2 analytically  !
 ! D106  D(18,12,20,32)          0.4314         calculate D2E/DX2 analytically  !
 ! D107  D(18,12,20,33)        120.7624         calculate D2E/DX2 analytically  !
 ! D108  D(18,12,20,34)       -119.8523         calculate D2E/DX2 analytically  !
 ! D109  D(19,13,17,7)           0.9992         calculate D2E/DX2 analytically  !
 ! D110  D(19,13,17,43)       -178.778          calculate D2E/DX2 analytically  !
 ! D111  D(21,13,17,7)        -179.5707         calculate D2E/DX2 analytically  !
 ! D112  D(21,13,17,43)          0.6521         calculate D2E/DX2 analytically  !
 ! D113  D(17,13,19,11)         -0.9616         calculate D2E/DX2 analytically  !
 ! D114  D(17,13,19,45)        178.7938         calculate D2E/DX2 analytically  !
 ! D115  D(21,13,19,11)        179.5929         calculate D2E/DX2 analytically  !
 ! D116  D(21,13,19,45)         -0.6516         calculate D2E/DX2 analytically  !
 ! D117  D(17,13,21,35)       -120.1181         calculate D2E/DX2 analytically  !
 ! D118  D(17,13,21,36)        120.5974         calculate D2E/DX2 analytically  !
 ! D119  D(17,13,21,37)          0.2722         calculate D2E/DX2 analytically  !
 ! D120  D(19,13,21,35)         59.2907         calculate D2E/DX2 analytically  !
 ! D121  D(19,13,21,36)        -59.9937         calculate D2E/DX2 analytically  !
 ! D122  D(19,13,21,37)        179.681          calculate D2E/DX2 analytically  !
 ! D123  D(6,14,26,50)         177.2768         calculate D2E/DX2 analytically  !
 ! D124  D(6,14,26,51)         -62.3171         calculate D2E/DX2 analytically  !
 ! D125  D(6,14,26,52)          58.4179         calculate D2E/DX2 analytically  !
 ! D126  D(27,14,26,50)        -61.8696         calculate D2E/DX2 analytically  !
 ! D127  D(27,14,26,51)         58.5365         calculate D2E/DX2 analytically  !
 ! D128  D(27,14,26,52)        179.2716         calculate D2E/DX2 analytically  !
 ! D129  D(28,14,26,50)         54.6814         calculate D2E/DX2 analytically  !
 ! D130  D(28,14,26,51)        175.0875         calculate D2E/DX2 analytically  !
 ! D131  D(28,14,26,52)        -64.1774         calculate D2E/DX2 analytically  !
 ! D132  D(6,14,27,53)         -62.1992         calculate D2E/DX2 analytically  !
 ! D133  D(6,14,27,54)          58.572          calculate D2E/DX2 analytically  !
 ! D134  D(6,14,27,55)         178.8756         calculate D2E/DX2 analytically  !
 ! D135  D(26,14,27,53)        176.1541         calculate D2E/DX2 analytically  !
 ! D136  D(26,14,27,54)        -63.0747         calculate D2E/DX2 analytically  !
 ! D137  D(26,14,27,55)         57.2289         calculate D2E/DX2 analytically  !
 ! D138  D(28,14,27,53)         59.6349         calculate D2E/DX2 analytically  !
 ! D139  D(28,14,27,54)       -179.5939         calculate D2E/DX2 analytically  !
 ! D140  D(28,14,27,55)        -59.2902         calculate D2E/DX2 analytically  !
 ! D141  D(6,14,28,56)         179.6651         calculate D2E/DX2 analytically  !
 ! D142  D(6,14,28,57)         -61.3368         calculate D2E/DX2 analytically  !
 ! D143  D(6,14,28,58)          60.6226         calculate D2E/DX2 analytically  !
 ! D144  D(26,14,28,56)        -58.5482         calculate D2E/DX2 analytically  !
 ! D145  D(26,14,28,57)         60.4499         calculate D2E/DX2 analytically  !
 ! D146  D(26,14,28,58)       -177.5907         calculate D2E/DX2 analytically  !
 ! D147  D(27,14,28,56)         59.4783         calculate D2E/DX2 analytically  !
 ! D148  D(27,14,28,57)        178.4765         calculate D2E/DX2 analytically  !
 ! D149  D(27,14,28,58)        -59.5642         calculate D2E/DX2 analytically  !
 ! D150  D(7,15,29,59)         178.1667         calculate D2E/DX2 analytically  !
 ! D151  D(7,15,29,60)         -61.5157         calculate D2E/DX2 analytically  !
 ! D152  D(7,15,29,61)          59.4649         calculate D2E/DX2 analytically  !
 ! D153  D(30,15,29,59)         55.3662         calculate D2E/DX2 analytically  !
 ! D154  D(30,15,29,60)        175.6838         calculate D2E/DX2 analytically  !
 ! D155  D(30,15,29,61)        -63.3356         calculate D2E/DX2 analytically  !
 ! D156  D(31,15,29,59)        -61.0019         calculate D2E/DX2 analytically  !
 ! D157  D(31,15,29,60)         59.3157         calculate D2E/DX2 analytically  !
 ! D158  D(31,15,29,61)       -179.7037         calculate D2E/DX2 analytically  !
 ! D159  D(7,15,30,62)        -179.9954         calculate D2E/DX2 analytically  !
 ! D160  D(7,15,30,63)         -61.0014         calculate D2E/DX2 analytically  !
 ! D161  D(7,15,30,64)          61.0109         calculate D2E/DX2 analytically  !
 ! D162  D(29,15,30,62)        -57.8597         calculate D2E/DX2 analytically  !
 ! D163  D(29,15,30,63)         61.1343         calculate D2E/DX2 analytically  !
 ! D164  D(29,15,30,64)       -176.8535         calculate D2E/DX2 analytically  !
 ! D165  D(31,15,30,62)         59.9402         calculate D2E/DX2 analytically  !
 ! D166  D(31,15,30,63)        178.9342         calculate D2E/DX2 analytically  !
 ! D167  D(31,15,30,64)        -59.0535         calculate D2E/DX2 analytically  !
 ! D168  D(7,15,31,65)         -61.6598         calculate D2E/DX2 analytically  !
 ! D169  D(7,15,31,66)          59.1216         calculate D2E/DX2 analytically  !
 ! D170  D(7,15,31,67)         179.3716         calculate D2E/DX2 analytically  !
 ! D171  D(29,15,31,65)        176.4714         calculate D2E/DX2 analytically  !
 ! D172  D(29,15,31,66)        -62.7471         calculate D2E/DX2 analytically  !
 ! D173  D(29,15,31,67)         57.5028         calculate D2E/DX2 analytically  !
 ! D174  D(30,15,31,65)         60.1641         calculate D2E/DX2 analytically  !
 ! D175  D(30,15,31,66)       -179.0545         calculate D2E/DX2 analytically  !
 ! D176  D(30,15,31,67)        -58.8045         calculate D2E/DX2 analytically  !
 ! D177  D(12,20,32,68)        179.9456         calculate D2E/DX2 analytically  !
 ! D178  D(12,20,32,69)        -60.7186         calculate D2E/DX2 analytically  !
 ! D179  D(12,20,32,70)         60.602          calculate D2E/DX2 analytically  !
 ! D180  D(33,20,32,68)         58.9385         calculate D2E/DX2 analytically  !
 ! D181  D(33,20,32,69)        178.2743         calculate D2E/DX2 analytically  !
 ! D182  D(33,20,32,70)        -60.4052         calculate D2E/DX2 analytically  !
 ! D183  D(34,20,32,68)        -59.1797         calculate D2E/DX2 analytically  !
 ! D184  D(34,20,32,69)         60.1561         calculate D2E/DX2 analytically  !
 ! D185  D(34,20,32,70)       -178.5233         calculate D2E/DX2 analytically  !
 ! D186  D(12,20,33,71)        179.5154         calculate D2E/DX2 analytically  !
 ! D187  D(12,20,33,72)        -60.7736         calculate D2E/DX2 analytically  !
 ! D188  D(12,20,33,73)         59.7781         calculate D2E/DX2 analytically  !
 ! D189  D(32,20,33,71)        -58.0406         calculate D2E/DX2 analytically  !
 ! D190  D(32,20,33,72)         61.6703         calculate D2E/DX2 analytically  !
 ! D191  D(32,20,33,73)       -177.7779         calculate D2E/DX2 analytically  !
 ! D192  D(34,20,33,71)         59.7867         calculate D2E/DX2 analytically  !
 ! D193  D(34,20,33,72)        179.4976         calculate D2E/DX2 analytically  !
 ! D194  D(34,20,33,73)        -59.9506         calculate D2E/DX2 analytically  !
 ! D195  D(12,20,34,74)        -59.5999         calculate D2E/DX2 analytically  !
 ! D196  D(12,20,34,75)         60.8499         calculate D2E/DX2 analytically  !
 ! D197  D(12,20,34,76)       -179.3789         calculate D2E/DX2 analytically  !
 ! D198  D(32,20,34,74)        178.0139         calculate D2E/DX2 analytically  !
 ! D199  D(32,20,34,75)        -61.5364         calculate D2E/DX2 analytically  !
 ! D200  D(32,20,34,76)         58.2348         calculate D2E/DX2 analytically  !
 ! D201  D(33,20,34,74)         60.2036         calculate D2E/DX2 analytically  !
 ! D202  D(33,20,34,75)       -179.3466         calculate D2E/DX2 analytically  !
 ! D203  D(33,20,34,76)        -59.5754         calculate D2E/DX2 analytically  !
 ! D204  D(13,21,35,77)       -179.5431         calculate D2E/DX2 analytically  !
 ! D205  D(13,21,35,78)        -59.7505         calculate D2E/DX2 analytically  !
 ! D206  D(13,21,35,79)         60.6963         calculate D2E/DX2 analytically  !
 ! D207  D(36,21,35,77)        -59.8888         calculate D2E/DX2 analytically  !
 ! D208  D(36,21,35,78)         59.9038         calculate D2E/DX2 analytically  !
 ! D209  D(36,21,35,79)       -179.6494         calculate D2E/DX2 analytically  !
 ! D210  D(37,21,35,77)         57.6759         calculate D2E/DX2 analytically  !
 ! D211  D(37,21,35,78)        177.4684         calculate D2E/DX2 analytically  !
 ! D212  D(37,21,35,79)        -62.0847         calculate D2E/DX2 analytically  !
 ! D213  D(13,21,36,80)        -60.6218         calculate D2E/DX2 analytically  !
 ! D214  D(13,21,36,81)         59.8295         calculate D2E/DX2 analytically  !
 ! D215  D(13,21,36,82)        179.6118         calculate D2E/DX2 analytically  !
 ! D216  D(35,21,36,80)        179.6876         calculate D2E/DX2 analytically  !
 ! D217  D(35,21,36,81)        -59.8611         calculate D2E/DX2 analytically  !
 ! D218  D(35,21,36,82)         59.9213         calculate D2E/DX2 analytically  !
 ! D219  D(37,21,36,80)         62.1103         calculate D2E/DX2 analytically  !
 ! D220  D(37,21,36,81)       -177.4384         calculate D2E/DX2 analytically  !
 ! D221  D(37,21,36,82)        -57.6561         calculate D2E/DX2 analytically  !
 ! D222  D(13,21,37,83)        179.7966         calculate D2E/DX2 analytically  !
 ! D223  D(13,21,37,84)        -60.9803         calculate D2E/DX2 analytically  !
 ! D224  D(13,21,37,85)         60.5433         calculate D2E/DX2 analytically  !
 ! D225  D(35,21,37,83)        -59.1215         calculate D2E/DX2 analytically  !
 ! D226  D(35,21,37,84)         60.1016         calculate D2E/DX2 analytically  !
 ! D227  D(35,21,37,85)       -178.3747         calculate D2E/DX2 analytically  !
 ! D228  D(36,21,37,83)         58.8012         calculate D2E/DX2 analytically  !
 ! D229  D(36,21,37,84)        178.0243         calculate D2E/DX2 analytically  !
 ! D230  D(36,21,37,85)        -60.4521         calculate D2E/DX2 analytically  !
 ! D231  D(4,24,25,5)          -43.9236         calculate D2E/DX2 analytically  !
 ! D232  D(4,24,25,39)        -171.5018         calculate D2E/DX2 analytically  !
 ! D233  D(4,24,25,49)          68.328          calculate D2E/DX2 analytically  !
 ! D234  D(38,24,25,5)          75.7338         calculate D2E/DX2 analytically  !
 ! D235  D(38,24,25,39)        -51.8443         calculate D2E/DX2 analytically  !
 ! D236  D(38,24,25,49)       -172.0146         calculate D2E/DX2 analytically  !
 ! D237  D(48,24,25,5)        -162.6759         calculate D2E/DX2 analytically  !
 ! D238  D(48,24,25,39)         69.746          calculate D2E/DX2 analytically  !
 ! D239  D(48,24,25,49)        -50.4243         calculate D2E/DX2 analytically  !
 ! D240  D(4,24,38,40)         172.5315         calculate D2E/DX2 analytically  !
 ! D241  D(4,24,38,86)          51.6924         calculate D2E/DX2 analytically  !
 ! D242  D(4,24,38,87)         -63.7361         calculate D2E/DX2 analytically  !
 ! D243  D(25,24,38,40)         54.7846         calculate D2E/DX2 analytically  !
 ! D244  D(25,24,38,86)        -66.0544         calculate D2E/DX2 analytically  !
 ! D245  D(25,24,38,87)        178.517          calculate D2E/DX2 analytically  !
 ! D246  D(48,24,38,40)        -66.638          calculate D2E/DX2 analytically  !
 ! D247  D(48,24,38,86)        172.5229         calculate D2E/DX2 analytically  !
 ! D248  D(48,24,38,87)         57.0944         calculate D2E/DX2 analytically  !
 ! D249  D(5,25,39,41)         -68.6998         calculate D2E/DX2 analytically  !
 ! D250  D(5,25,39,88)         171.461          calculate D2E/DX2 analytically  !
 ! D251  D(5,25,39,89)          57.3526         calculate D2E/DX2 analytically  !
 ! D252  D(24,25,39,41)         52.5349         calculate D2E/DX2 analytically  !
 ! D253  D(24,25,39,88)        -67.3042         calculate D2E/DX2 analytically  !
 ! D254  D(24,25,39,89)        178.5873         calculate D2E/DX2 analytically  !
 ! D255  D(49,25,39,41)        171.8711         calculate D2E/DX2 analytically  !
 ! D256  D(49,25,39,88)         52.032          calculate D2E/DX2 analytically  !
 ! D257  D(49,25,39,89)        -62.0765         calculate D2E/DX2 analytically  !
 ! D258  D(24,38,40,41)        -57.1998         calculate D2E/DX2 analytically  !
 ! D259  D(24,38,40,90)       -179.77           calculate D2E/DX2 analytically  !
 ! D260  D(24,38,40,91)         63.5846         calculate D2E/DX2 analytically  !
 ! D261  D(86,38,40,41)         62.773          calculate D2E/DX2 analytically  !
 ! D262  D(86,38,40,90)        -59.7971         calculate D2E/DX2 analytically  !
 ! D263  D(86,38,40,91)       -176.4425         calculate D2E/DX2 analytically  !
 ! D264  D(87,38,40,41)       -179.4522         calculate D2E/DX2 analytically  !
 ! D265  D(87,38,40,90)         57.9776         calculate D2E/DX2 analytically  !
 ! D266  D(87,38,40,91)        -58.6677         calculate D2E/DX2 analytically  !
 ! D267  D(24,38,86,95)       -105.329          calculate D2E/DX2 analytically  !
 ! D268  D(40,38,86,95)        132.613          calculate D2E/DX2 analytically  !
 ! D269  D(87,38,86,95)         11.7138         calculate D2E/DX2 analytically  !
 ! D270  D(25,39,41,40)        -54.7186         calculate D2E/DX2 analytically  !
 ! D271  D(25,39,41,92)       -177.1617         calculate D2E/DX2 analytically  !
 ! D272  D(25,39,41,93)         66.1469         calculate D2E/DX2 analytically  !
 ! D273  D(88,39,41,40)         63.4913         calculate D2E/DX2 analytically  !
 ! D274  D(88,39,41,92)        -58.9517         calculate D2E/DX2 analytically  !
 ! D275  D(88,39,41,93)       -175.6431         calculate D2E/DX2 analytically  !
 ! D276  D(89,39,41,40)        179.8315         calculate D2E/DX2 analytically  !
 ! D277  D(89,39,41,92)         57.3885         calculate D2E/DX2 analytically  !
 ! D278  D(89,39,41,93)        -59.3029         calculate D2E/DX2 analytically  !
 ! D279  D(38,40,41,39)         56.431          calculate D2E/DX2 analytically  !
 ! D280  D(38,40,41,92)        178.2624         calculate D2E/DX2 analytically  !
 ! D281  D(38,40,41,93)        -64.8446         calculate D2E/DX2 analytically  !
 ! D282  D(90,40,41,39)        178.4763         calculate D2E/DX2 analytically  !
 ! D283  D(90,40,41,92)        -59.6922         calculate D2E/DX2 analytically  !
 ! D284  D(90,40,41,93)         57.2008         calculate D2E/DX2 analytically  !
 ! D285  D(91,40,41,39)        -64.4525         calculate D2E/DX2 analytically  !
 ! D286  D(91,40,41,92)         57.379          calculate D2E/DX2 analytically  !
 ! D287  D(91,40,41,93)        174.272          calculate D2E/DX2 analytically  !
 --------------------------------------------------------------------------------
 Trust Radius=3.00D-01 FncErr=5.00D-06 GrdErr=5.00D-06 EigMax=2.50D+02 EigMin=1.00D-04
 Number of steps in this run=    570 maximum allowed number of steps=    570.
 GradGradGradGradGradGradGradGradGradGradGradGradGradGradGradGradGradGrad

 Symmetry turned off by external request.
 Stoichiometry    C36H53ClCoN2O2(1-)
 Framework group  C1[X(C36H53ClCoN2O2)]
 Deg. of freedom   279
 Full point group                 C1      NOp   1
                          Input orientation:                          
 ---------------------------------------------------------------------
 Center     Atomic      Atomic             Coordinates (Angstroms)
 Number     Number       Type             X           Y           Z
 ---------------------------------------------------------------------
      1         27           0        0.054080    0.361267   -1.446299
      2          8           0        1.256070   -1.101129   -1.576614
      3          8           0       -1.288873   -0.937520   -1.139234
      4          7           0        1.311542    1.595154   -2.085062
      5          7           0       -1.133711    1.819076   -1.327348
      6          6           0        3.295582   -2.283263   -1.681368
      7          6           0       -3.422434   -1.888811   -0.797704
      8          6           0        2.532145   -1.071264   -1.808569
      9          6           0       -2.559311   -0.752668   -0.934981
     10          6           0        3.225265    0.112758   -2.214080
     11          6           0       -3.150869    0.548707   -0.855700
     12          6           0        5.339840   -1.085599   -2.411011
     13          6           0       -5.362543   -0.394158   -0.425718
     14          6           0        2.621414   -3.570427   -1.195422
     15          6           0       -2.865892   -3.306985   -0.970700
     16          6           0        4.644814   -2.242449   -1.987389
     17          6           0       -4.770673   -1.667695   -0.544449
     18          6           0        4.606919    0.075553   -2.511436
     19          6           0       -4.528328    0.693360   -0.596472
     20          6           0        6.831509   -1.179234   -2.725990
     21          6           0       -6.851973   -0.191296   -0.136418
     22          6           0        2.555711    1.362111   -2.369897
     23          6           0       -2.395982    1.749127   -1.045372
     24          6           0        0.717933    2.902336   -2.394219
     25          6           0       -0.414398    3.114737   -1.389077
     26          6           0        1.472682   -3.970188   -2.134435
     27          6           0        2.078847   -3.356898    0.226865
     28          6           0        3.599634   -4.745271   -1.142350
     29          6           0       -1.742283   -3.584843    0.039529
     30          6           0       -3.940477   -4.375960   -0.762496
     31          6           0       -2.325763   -3.469639   -2.400827
     32          6           0        7.409894    0.167909   -3.153504
     33          6           0        7.590882   -1.660444   -1.482117
     34          6           0        7.051928   -2.185540   -3.863530
     35          6           0       -7.494067    0.599798   -1.283685
     36          6           0       -7.016311    0.602510    1.166438
     37          6           0       -7.599465   -1.515767    0.011106
     38          6           0        0.196547    2.905604   -3.832256
     39          6           0       -1.247010    4.342817   -1.731911
     40          6           0       -0.589009    4.171416   -4.142305
     41          6           0       -1.749822    4.337405   -3.169974
     42          1           0        5.217909   -3.159525   -1.895840
     43          1           0       -5.410949   -2.533887   -0.434203
     44          1           0        5.071690    1.005296   -2.827533
     45          1           0       -4.923355    1.706094   -0.537582
     46          1           0        3.147672    2.190656   -2.772014
     47          1           0       -2.958987    2.679584   -0.943309
     48          1           0        1.469861    3.692196   -2.270435
     49          1           0        0.035581    3.246359   -0.396305
     50          1           0        1.031035   -4.916916   -1.803246
     51          1           0        0.690531   -3.211992   -2.154300
     52          1           0        1.835733   -4.115086   -3.158076
     53          1           0        2.894594   -3.137674    0.924389
     54          1           0        1.364320   -2.533170    0.264525
     55          1           0        1.575442   -4.263103    0.581876
     56          1           0        3.074683   -5.636550   -0.785223
     57          1           0        4.015267   -4.983085   -2.126894
     58          1           0        4.434513   -4.562705   -0.458279
     59          1           0       -1.380343   -4.612521   -0.078019
     60          1           0       -0.902331   -2.905127   -0.100229
     61          1           0       -2.105346   -3.479959    1.068047
     62          1           0       -3.494495   -5.366271   -0.896211
     63          1           0       -4.368411   -4.343229    0.244751
     64          1           0       -4.761286   -4.289207   -1.481288
     65          1           0       -3.126801   -3.336930   -3.136064
     66          1           0       -1.538031   -2.747199   -2.619402
     67          1           0       -1.913227   -4.475340   -2.539272
     68          1           0        8.477442    0.062892   -3.369513
     69          1           0        6.927932    0.551686   -4.058074
     70          1           0        7.306085    0.925105   -2.369933
     71          1           0        8.662534   -1.741528   -1.693283
     72          1           0        7.466245   -0.963109   -0.647306
     73          1           0        7.246174   -2.644066   -1.149577
     74          1           0        6.687428   -3.182918   -3.600249
     75          1           0        6.534124   -1.871489   -4.775460
     76          1           0        8.118289   -2.275191   -4.097076
     77          1           0       -8.560045    0.762529   -1.091081
     78          1           0       -7.027970    1.581487   -1.409302
     79          1           0       -7.403944    0.063588   -2.233898
     80          1           0       -6.575012    0.068719    2.014341
     81          1           0       -6.538063    1.584447    1.104898
     82          1           0       -8.076664    0.764748    1.388361
     83          1           0       -8.656028   -1.322321    0.219972
     84          1           0       -7.551380   -2.119259   -0.900747
     85          1           0       -7.207654   -2.119654    0.835609
     86          1           0       -0.449484    2.026853   -3.965417
     87          1           0        1.040868    2.777522   -4.517555
     88          1           0       -0.594646    5.211643   -1.580651
     89          1           0       -2.066106    4.464140   -1.017201
     90          1           0       -0.950404    4.140171   -5.174813
     91          1           0        0.075036    5.043688   -4.070507
     92          1           0       -2.296529    5.263337   -3.373272
     93          1           0       -2.465363    3.517338   -3.314891
     94          1           0        0.410022    0.593620   -0.072932
     95         17           0        0.730207   -0.873156   -5.859038
 ---------------------------------------------------------------------
 Rotational constants (GHZ):           0.1144417           0.0455747           0.0369401
 General basis read from cards:  (5D, 7F)
 ======================================================================================================
                                       Pseudopotential Parameters
 ======================================================================================================
  Center     Atomic      Valence      Angular      Power
  Number     Number     Electrons     Momentum     of R      Exponent        Coefficient   SO-Coeffient
 ======================================================================================================
    1         27           17
                                      F and up 
                                                     2        1.0000000        0.00000000    0.00000000
                                      S - F
                                                     2       23.6600000      283.96056600    0.00000000
                                                     2       10.6100000       47.15684600    0.00000000
                                      P - F
                                                     2       25.0400000      182.21223600    0.00000000
                                                     2       10.4400000       35.23335200    0.00000000
                                      D - F
                                                     2       29.5400000      -26.47533300    0.00000000
                                                     2       10.1800000       -1.82578700    0.00000000
    2          8
                                   No pseudopotential on this center.
    3          8
                                   No pseudopotential on this center.
    4          7
                                   No pseudopotential on this center.
    5          7
                                   No pseudopotential on this center.
    6          6
                                   No pseudopotential on this center.
    7          6
                                   No pseudopotential on this center.
    8          6
                                   No pseudopotential on this center.
    9          6
                                   No pseudopotential on this center.
   10          6
                                   No pseudopotential on this center.
   11          6
                                   No pseudopotential on this center.
   12          6
                                   No pseudopotential on this center.
   13          6
                                   No pseudopotential on this center.
   14          6
                                   No pseudopotential on this center.
   15          6
                                   No pseudopotential on this center.
   16          6
                                   No pseudopotential on this center.
   17          6
                                   No pseudopotential on this center.
   18          6
                                   No pseudopotential on this center.
   19          6
                                   No pseudopotential on this center.
   20          6
                                   No pseudopotential on this center.
   21          6
                                   No pseudopotential on this center.
   22          6
                                   No pseudopotential on this center.
   23          6
                                   No pseudopotential on this center.
   24          6
                                   No pseudopotential on this center.
   25          6
                                   No pseudopotential on this center.
   26          6
                                   No pseudopotential on this center.
   27          6
                                   No pseudopotential on this center.
   28          6
                                   No pseudopotential on this center.
   29          6
                                   No pseudopotential on this center.
   30          6
                                   No pseudopotential on this center.
   31          6
                                   No pseudopotential on this center.
   32          6
                                   No pseudopotential on this center.
   33          6
                                   No pseudopotential on this center.
   34          6
                                   No pseudopotential on this center.
   35          6
                                   No pseudopotential on this center.
   36          6
                                   No pseudopotential on this center.
   37          6
                                   No pseudopotential on this center.
   38          6
                                   No pseudopotential on this center.
   39          6
                                   No pseudopotential on this center.
   40          6
                                   No pseudopotential on this center.
   41          6
                                   No pseudopotential on this center.
   42          1
                                   No pseudopotential on this center.
   43          1
                                   No pseudopotential on this center.
   44          1
                                   No pseudopotential on this center.
   45          1
                                   No pseudopotential on this center.
   46          1
                                   No pseudopotential on this center.
   47          1
                                   No pseudopotential on this center.
   48          1
                                   No pseudopotential on this center.
   49          1
                                   No pseudopotential on this center.
   50          1
                                   No pseudopotential on this center.
   51          1
                                   No pseudopotential on this center.
   52          1
                                   No pseudopotential on this center.
   53          1
                                   No pseudopotential on this center.
   54          1
                                   No pseudopotential on this center.
   55          1
                                   No pseudopotential on this center.
   56          1
                                   No pseudopotential on this center.
   57          1
                                   No pseudopotential on this center.
   58          1
                                   No pseudopotential on this center.
   59          1
                                   No pseudopotential on this center.
   60          1
                                   No pseudopotential on this center.
   61          1
                                   No pseudopotential on this center.
   62          1
                                   No pseudopotential on this center.
   63          1
                                   No pseudopotential on this center.
   64          1
                                   No pseudopotential on this center.
   65          1
                                   No pseudopotential on this center.
   66          1
                                   No pseudopotential on this center.
   67          1
                                   No pseudopotential on this center.
   68          1
                                   No pseudopotential on this center.
   69          1
                                   No pseudopotential on this center.
   70          1
                                   No pseudopotential on this center.
   71          1
                                   No pseudopotential on this center.
   72          1
                                   No pseudopotential on this center.
   73          1
                                   No pseudopotential on this center.
   74          1
                                   No pseudopotential on this center.
   75          1
                                   No pseudopotential on this center.
   76          1
                                   No pseudopotential on this center.
   77          1
                                   No pseudopotential on this center.
   78          1
                                   No pseudopotential on this center.
   79          1
                                   No pseudopotential on this center.
   80          1
                                   No pseudopotential on this center.
   81          1
                                   No pseudopotential on this center.
   82          1
                                   No pseudopotential on this center.
   83          1
                                   No pseudopotential on this center.
   84          1
                                   No pseudopotential on this center.
   85          1
                                   No pseudopotential on this center.
   86          1
                                   No pseudopotential on this center.
   87          1
                                   No pseudopotential on this center.
   88          1
                                   No pseudopotential on this center.
   89          1
                                   No pseudopotential on this center.
   90          1
                                   No pseudopotential on this center.
   91          1
                                   No pseudopotential on this center.
   92          1
                                   No pseudopotential on this center.
   93          1
                                   No pseudopotential on this center.
   94          1
                                   No pseudopotential on this center.
   95         17
                                   No pseudopotential on this center.
 ======================================================================================================
  1324 basis functions,  2045 primitive gaussians,  1371 cartesian basis functions
   167 alpha electrons      167 beta electrons
       nuclear repulsion energy      5911.4273609561 Hartrees.
 NAtoms=   95 NActive=   95 NUniq=   95 SFac= 1.00D+00 NAtFMM=   60 NAOKFM=T Big=T
 Integral buffers will be    131072 words long.
 Raffenetti 2 integral format.
 Two-electron integral symmetry is turned off.
 Standard density basis: Auto (5D, 7F)
  6120 Density fitting functions
 Force inversion solution in PCM.
 ------------------------------------------------------------------------------
 Polarizable Continuum Model (PCM)
 =================================
 Model                : PCM.
 Atomic radii         : SMD-Coulomb.
 Polarization charges : Total charges.
 Charge compensation  : None.
 Solution method      : Matrix inversion.
 Cavity type          : VdW (van der Waals Surface) (Alpha=1.000).
 Cavity algorithm     : GePol (No added spheres)
                        Default sphere list used, NSphG=   95.
                        Lebedev-Laikov grids with approx.  5.0 points / Ang**2.
                        Smoothing algorithm: York/Karplus (Gamma=1.0000).
                        Polarization charges: spherical gaussians, with
                                              point-specific exponents (IZeta= 3).
                        Self-potential: point-specific (ISelfS= 7).
                        Self-field    : sphere-specific E.n sum rule (ISelfD= 2).
 1st derivatives      : Analytical E(r).r(x)/FMM algorithm (CHGder, D1EAlg=3).
                        Cavity 1st derivative terms included.
 2nd derivatives      : Analytical E(r).r(xy)/FMM algorithm (CHGder, D2EAlg=3).
                        Cavity 2nd derivative terms included.
 Solvent              : n,n-DiMethylFormamide, Eps=  37.219000 Eps(inf)=   2.046330
 ------------------------------------------------------------------------------
 ------------------------------------------------------------------------------
 Atomic radii for non-electrostatic terms: SMD-CDS.
 ------------------------------------------------------------------------------
 Nuclear repulsion after PCM non-electrostatic terms =     5911.4191521732 Hartrees.
 One-electron integrals computed using PRISM.
   1 Symmetry operations used in ECPInt.
 ECPInt:  NShTT=  142311 NPrTT=  441310 LenC2=  111136 LenP2D=  229680.
 LDataN:  DoStor=T MaxTD1= 6 Len=  172
 Number of processors reduced to  51 by ecpmxn.
 NBasis=  1324 RedAO= T EigKep=  1.06D-06  NBF=  1324
 NBsUse=  1307 1.00D-06 EigRej=  9.89D-07 NBFU=  1307
 NBasis=     1324 NBas6D=     1371 NTT=      877150   NTT6D=   940506
 NDBShl=      996 NDBF=       6120 NDBF6D=     7190  NNucDB=        0
 IDenFi=        2 ISolve=        0 FullAP=F BlkAPC=T NucTyp=        0
 TolInv= 1.00D-06 TolIt=  1.00D-10 IR12=0.
 FoFCou: FMM=F IPFlag=           0 FMFlag=           0 FMFlg1=           0
         NFxFlg=           0 DoJE=F BraDBF=T KetDBF=T FulRan=T
         wScrn=  0.000000 ICntrl=       600 IOpCl=  3 I1Cent=           6 NGrid=           0
         NMat0=    1 NMatS0=   7190 NMatT0=    0 NMatD0=    1 NMtDS0=    0 NMtDT0=    0
 Symmetry not used in FoFCou.
 DBF EigKep=  1.01D-06 EigRej=  9.93D-07
 NDBF=   6120  NBFD=  6120
 NRank=  5689 NBFDU=  5689
 S*AI*S=  20.0033618282    
 ExpMin= 1.00D-02 ExpMax= 1.06D+05 ExpMxC= 3.62D+03 IAcc=3 IRadAn=         5 AccDes= 0.00D+00
 Harris functional with IExCor= 1009 and IRadAn=       5 diagonalized for initial guess.
 HarFok:  IExCor= 1009 AccDes= 0.00D+00 IRadAn=         5 IDoV= 1 UseB2=F ITyADJ=14
 ICtDFT=  3500011 ScaDFX=  1.000000  1.000000  1.000000  1.000000
 FoFCou: FMM=F IPFlag=           0 FMFlag=      100000 FMFlg1=        2001
         NFxFlg=           0 DoJE=T BraDBF=F KetDBF=T FulRan=T
         wScrn=  0.000000 ICntrl=       500 IOpCl=  0 I1Cent=   200000004 NGrid=           0
         NMat0=    1 NMatS0=      1 NMatT0=    0 NMatD0=    1 NMtDS0=    0 NMtDT0=    0
 Symmetry not used in FoFCou.
[...]
 ,-0.00000139,0.00000345,-0.00002148,-0.00001931,0.00000158,0.00001520,
 0.00000178,0.00000450,-0.00000600,-0.00003670,-0.00000037,0.00000196,-
 0.00000579,0.00000305,0.00000382,0.00000022,-0.00000875,0.00000570,0.0
 0000410,0.00000486,-0.00002393,-0.00000835,0.00001925,-0.00002712,-0.0
 0001230,-0.00001051,-0.00001225,0.00001575,-0.00000173,0.00014898,0.00
 022857,0.00021984,0.00011534,0.00031359,0.00017093,-0.00007656,-0.0000
 5489,-0.00011462,0.00005081,-0.00007802,0.00005582,-0.00003428,-0.0000
 1522,-0.00002789,0.00001629,-0.00001654,-0.00004706,-0.00000823,-0.000
 00281,-0.00001239,-0.00000735,-0.00000409,-0.00002533,0.00015169,-0.00
 017234,-0.00054323,-0.00034789,-0.00004385,-0.00054861,-0.00002050,0.0
 0011199,-0.00009194,0.00008451,0.00007352,0.00010092,-0.00000024,0.000
 00401,-0.00000318,-0.00001132,0.00002884,0.00000622,-0.00000005,-0.000
 00111,0.00000023,0.00000306,0.00000022,-0.00000150,-0.00006911,0.00008
 100,0.00002036,-0.00000999,0.00000991,0.00000560,0.00000014,-0.0000021
 3,0.00000112,-0.00000185,0.00000458,0.00000050,-0.00000320,0.00000231,
 -0.00000384,0.00001140,0.00000818,0.00000710,0.00004869,0.00006167,0.0
 0000291,-0.00000106,0.00000011,0.00000204,-0.00000100,-0.00000507,-0.0
 0000071,-0.00000022,0.00000247,-0.00000215,0.00000131,0.00000186,-0.00
 000140,-0.00000373,-0.00000069,0.00000226,0.00001432,0.00002349,0.0000
 1667,0.00000384,-0.00000394,-0.00000917,0.00000099,0.00000106,0.000000
 53,-0.00000287,0.00000023,-0.00000086,-0.00000039,-0.00000054,-0.00000
 124,0.00000244,-0.00000407,0.00000354,0.00000154,-0.00000006,0.0000011
 8,0.00000016,-0.00000210,0.00000084,-0.00000046,-0.00000119,-0.0000008
 3,-0.00000222,-0.00000064,-0.00000051,0.00000211,-0.00000464,-0.000003
 30,-0.00001234,0.00000661,-0.00000810,0.00000200,-0.00000327,0.0000020
 3,0.00000173,-0.00000149,-0.00000315,-0.00000082,0.00000036,0.00000121
 ,0.00000249,-0.00000008,-0.00000226,-0.00000837,0.00000718,0.00001175,
 -0.00000365,-0.00000605,0.00000231,0.00000143,-0.00000223,-0.00000007,
 0.00000244,-0.00000520,0.00000207,-0.00007878,-0.00012071,-0.00008509,
 -0.00001796,-0.00004857,-0.00003611,-0.00005651,0.00008078,-0.00001417
 ,-0.00001413,0.00002828,-0.00000548,-0.00002159,0.00003196,-0.00001774
 ,0.00001830,-0.00002102,0.00000470,-0.00000752,0.00000216,-0.00000668,
 -0.00000272,-0.00000027,-0.00001296,0.00379747,0.02316636,-0.03448667,
 -0.02012431,-0.15332401,-0.00001188,-0.00052641,0.00204411,0.00067175,
 0.00025728,0.00315966,-0.00102570,-0.00070593,-0.00048618,0.00258752,-
 0.00147943,0.00179949,0.00007971,0.00025387,-0.00020994,-0.00032340,0.
 00031537,-0.00022517,-0.00015093,-0.00013240,-0.00020751,0.00021131,-0
 .00045468,-0.00028599,0.00004520,-0.00049972,0.00012435,0.00021266,-0.
 00000639,0.00018343,0.00007693,-0.00012036,0.00001245,0.00001716,0.000
 09040,-0.00000005,0.00002604,0.00017531,-0.00010540,-0.00000254,0.0001
 6171,-0.00000554,0.00029276,0.00006336,-0.00002065,-0.00007221,-0.0001
 7740,0.00007776,-0.00006140,-0.00016947,0.00006370,-0.00026001,-0.0001
 8762,0.00000747,-0.00013088,-0.00008730,0.00003920,0.00009763,0.000037
 43,-0.00002658,-0.00024386,0.00065289,-0.00007000,-0.00089758,0.000488
 92,0.00028642,0.00014334,-0.00042207,-0.00011022,-0.00062158,0.0001215
 4,-0.00027652,-0.00004834,-0.00005622,0.00006628,-0.00002550,-0.000082
 36,-0.00002316,-0.00007085,-0.00001677,0.00003906,0.00002244,-0.000067
 80,-0.00005345,0.00006064,-0.00002315,-0.00000989,0.00003163,-0.000039
 97,0.00001995,0.00004150,-0.00006648,-0.00000105,0.00009209,0.00002197
 ,-0.00011381,0.00012121,0.00005622,0.00004765,-0.00006751,-0.00002514,
 0.00007441,-0.00008830,-0.00002648,-0.00004601,-0.00003384,0.00005130,
 0.00000653,-0.00002114,0.00003924,0.00014515,0.00027073,0.00003581,0.0
 0015786,-0.00003659,-0.00003804,-0.00009060,0.00002173,-0.00001537,0.0
 0001475,0.00006835,-0.00001328,0.00000095,-0.00005885,-0.00000110,0.00
 003206,0.00003861,0.00006409,-0.00004181,-0.00005028,0.00005615,-0.000
 01119,0.00005942,0.00007069,0.00006559,-0.00020336,-0.00000627,-0.0001
 5408,0.00003990,0.00013419,-0.00003514,0.00004249,0.00018776,0.0000815
 8,-0.00001732,-0.00006151,-0.00001691,0.00005504,0.00007694,0.00002014
 ,0.00002292,-0.00002160,-0.00000511,0.00002913,-0.00001824,0.00001743,
 0.00007091,-0.00014208,-0.00012145,-0.00001668,-0.00002632,0.00005180,
 0.00000146,-0.00004409,0.00000930,0.00000642,0.00000104,-0.00000002,0.
 00001252,-0.00000366,-0.00000336,0.00000978,-0.00005472,0.00003535,-0.
 00007763,0.00001686,-0.00006953,-0.00002166,-0.00002372,0.00002961,-0.
 00000495,-0.00003927,-0.00000004,-0.00001218,-0.00000360,0.00000622,-0
 .00000773,-0.00000111,0.00000258,-0.00002645,-0.00001891,-0.00000320,-
 0.00002140,0.00000676,0.00005315,0.00000217,-0.00004234,-0.00003370,0.
 00003451,0.00001985,-0.00001131,-0.00000343,0.00000613,0.00000358,-0.0
 0000416,0.00000904,0.00000145,0.00005939,-0.00001772,0.00004443,-0.000
 00120,0.00000893,0.00000916,-0.00001132,0.00000201,-0.00000370,-0.0000
 0983,0.00000675,0.00000714,-0.00000799,0.00000308,-0.00000451,0.000040
 47,-0.00004117,-0.00005004,-0.00004182,0.00002335,-0.00002844,0.000007
 44,-0.00000521,0.00000127,0.00000140,-0.00000328,-0.00000422,0.0000064
 6,-0.00000778,0.00000877,0.00000715,-0.00000302,-0.00000636,-0.0000287
 8,0.00002637,0.00004194,-0.00002984,-0.00001209,0.00000579,0.00000529,
 -0.00000294,0.00000228,0.00000146,-0.00000581,-0.00000344,0.00002277,0
 .00005717,0.00000424,0.00000809,0.00002410,-0.00002358,-0.00004790,0.0
 0010751,-0.00003367,-0.00003123,0.00003025,-0.00001715,-0.00002717,0.0
 0003975,-0.00002303,0.00000744,0.00001683,0.00000901,-0.00002138,0.000
 01484,-0.00001193,0.00000486,-0.00001158,0.00000122,0.03368738,0.02234
 486,0.14760304,-0.00025772,0.00002768,-0.00001052,-0.00137690,0.000402
 20,0.00090609,0.00006260,0.00004049,0.00005280,0.00007398,-0.00000847,
 0.00020696,0.00002800,0.00000955,0.00000460,0.00014762,-0.00002595,0.0
 0007952,0.00000615,0.00000886,0.00000458,0.00011360,-0.00005586,0.0001
 1226,-0.00003731,0.00001680,-0.00001448,-0.00017696,-0.00005666,-0.000
 38587,0.00001660,0.00001369,-0.00000524,0.00000138,0.00006759,0.000102
 49,0.00000920,0.00000413,-0.00000109,-0.00001725,-0.00005990,0.0000482
 8,0.00002496,0.00005937,0.00002370,-0.00006392,0.00004655,0.00001214,0
 .00000990,0.00000439,-0.00000320,0.00021406,-0.00005253,0.00007357,-0.
 00000238,-0.00000499,0.00000573,0.00001830,-0.00000218,0.00001376,-0.0
 0000178,0.00000169,-0.00000234,-0.00040329,-0.00007105,-0.00051174,-0.
 00002304,-0.00005205,0.00000435,-0.00002918,0.00005594,0.00002605,-0.0
 0001133,-0.00001438,0.00001046,-0.00001380,-0.00002160,-0.00001425,0.0
 0000384,0.00001272,0.00000280,0.00001130,0.00001032,0.00000455,-0.0000
 0158,-0.00000503,0.00001039,0.00000140,-0.00000927,-0.00002308,-0.0000
 6687,-0.00008930,-0.00010554,0.00000507,0.00000186,0.00001125,-0.00000
 122,-0.00000061,0.00000560,-0.00001293,0.00000208,0.00000297,0.0000005
 4,-0.00000170,-0.00000343,0.00000174,0.00000015,0.00000014,-0.00000029
 ,-0.00000108,-0.00000150,-0.00001979,0.00013808,-0.00021665,0.00000510
 ,0.00000344,-0.00001081,-0.00001584,-0.00000939,-0.00000822,-0.0000148
 8,-0.00002555,0.00000475,-0.00000100,-0.00000224,0.00000524,0.00000111
 ,0.00000177,-0.00000381,-0.00000305,-0.00000470,0.00000384,0.00000023,
 -0.00000181,-0.00000352,-0.00001484,-0.00000721,0.00001447,0.00000779,
 -0.00000393,-0.00000490,0.00000136,-0.00000518,-0.00000092,0.00000753,
 0.00000156,-0.00000471,0.00001677,0.00001002,0.00002946,-0.00002151,0.
 00013525,-0.00024975,-0.00007597,-0.00000022,0.00003077,-0.00000199,0.
 00000034,-0.00000118,-0.00000150,-0.00000637,0.00001175,0.00000198,0.0
 0000612,-0.00000953,0.00000026,0.00000782,-0.00000440,0.00000236,-0.00
 000445,-0.00000251,0.00000182,-0.00000027,-0.00000094,0.,0.00000114,-0
 .00000164,0.00000031,-0.00000189,-0.00000496,-0.00000057,-0.00000036,-
 0.00000195,-0.00000003,-0.00000036,0.00000021,0.00000718,0.00000431,-0
 .00000144,0.00000459,0.00000126,0.00000092,0.00000537,0.00001420,-0.00
 001754,-0.00018695,-0.00018733,0.00044443,0.00000978,0.00000889,-0.000
 01260,-0.00000746,-0.00000020,-0.00000183,0.00000007,0.00000600,-0.000
 00858,-0.00000064,-0.00000329,-0.00000359,-0.00000517,0.00000089,-0.00
 000312,-0.00000170,-0.00000214,-0.00000434,0.00000021,0.00000242,-0.00
 000101,0.00000372,-0.00000329,0.00000074,0.00001713,-0.00001888,-0.000
 00942,-0.00001441,0.00000018,-0.00000100,-0.00000038,-0.00000057,0.000
 00155,0.00000051,-0.00000125,-0.00000113,0.00000181,0.00000228,0.00000
 286,0.00000016,-0.00000038,0.00000130,-0.00000046,0.00000013,-0.000000
 09,-0.00000055,0.00000051,0.00000006,0.00000005,-0.00000015,0.00000011
 ,0.00000086,0.00000110,0.00000053,0.00000085,-0.00000127,0.00000113,-0
 .00001608,0.00041898,0.00008893,0.00003609,-0.00003276,-0.00000124,0.0
 0000227,0.00000138,0.00000438,0.00000387,-0.00000433,-0.00000266,-0.00
 000059,-0.00001600,-0.00000522,0.00000823,-0.00000961,-0.00000138,0.00
 001058,-0.00000085,-0.00000332,0.00000788,0.00000701,-0.00000368,0.000
 00578,0.00001015,-0.00001197,0.00197928,0.00004042,-0.00005121,-0.0001
 2896,0.00058565,-0.00048736,0.00150780,-0.00005897,-0.00000066,0.00004
 615,-0.00014153,-0.00009852,-0.00017949,-0.00001878,0.00001298,0.00000
 538,-0.00000875,-0.00007871,-0.00003710,-0.00002115,-0.00000492,0.0000
 0786,-0.00023186,-0.00003592,0.00007316,0.00005596,-0.00000955,0.00001
 172,0.00006101,0.00003714,-0.00003579,0.00000067,0.00000563,-0.0000017
 8,0.00000535,0.00002972,-0.00001915,-0.00000286,0.00000965,0.00000123,
 0.00001677,-0.00000361,-0.00004048,0.00002166,0.00004761,0.00002214,-0
 .00001669,-0.00002932,0.00000207,0.00000896,-0.00000529,-0.00000155,0.
 00002737,-0.00003279,0.00001122,-0.00000473,-0.00000370,0.00000011,-0.
 00000643,-0.00000218,-0.00000025,0.00000298,-0.00000045,0.00000017,-0.
 00025270,-0.00022518,-0.00042668,0.00000202,0.00000920,-0.00000118,-0.
 00001399,-0.00001166,0.00006596,-0.00001584,-0.00001918,-0.00001418,-0
 .00007140,0.00010679,0.00012664,-0.00000503,-0.00000239,-0.00000577,0.
 00001137,0.00000365,0.00001845,0.00000660,-0.00000620,0.00000768,0.000
 00347,-0.00000781,-0.00001673,-0.00008079,-0.00007643,-0.00009781,0.00
 000301,-0.00000239,0.00000279,0.00000271,-0.00000041,-0.00000316,0.000
 00564,-0.00000222,0.00000449,-0.00000188,-0.00000259,0.00000080,-0.000
 00100,-0.00000057,-0.00000033,-0.00000134,0.00000077,-0.00000116,0.000
 21667,-0.00010489,0.00008958,0.00000779,-0.00000433,-0.00000057,-0.000
 01622,-0.00004942,-0.00001209,0.00000710,0.00000089,0.00000069,-0.0000
 0548,0.00000288,-0.00000816,-0.00000074,0.00000052,-0.00000204,0.00001
 107,-0.00000071,-0.00000806,-0.00000221,0.00000114,0.00000064,-0.00001
 496,-0.00001170,0.00000275,-0.00000392,0.00000061,0.00000069,-0.000001
 55,0.00002126,-0.00000075,0.00000499,0.00000364,-0.00000325,0.00002205
 ,-0.00002981,-0.00003667,0.00016831,-0.00015859,0.00009683,0.00005774,
 -0.00013706,0.00005800,0.00000476,-0.00000177,0.00000671,0.00000149,-0
 .00000172,-0.00000532,0.00000036,-0.00000189,0.00000215,-0.00000183,-0
 .00000055,-0.00000100,-0.00000474,0.00000458,0.00000023,0.00001114,-0.
 00000462,0.00000574,-0.00000118,0.00000285,-0.00000202,0.00000046,0.00
 000337,-0.00001434,-0.00000533,0.00000020,0.00000043,-0.00000064,0.000
 00004,-0.00000052,0.00000423,0.00000381,0.00000024,0.00000205,0.000000
 45,0.00000010,0.00000360,-0.00000440,-0.00000580,-0.00014169,-0.000147
 38,0.00044028,0.00002195,0.00002374,-0.00002273,0.00000162,0.00000077,
 -0.00000179,0.00000016,-0.00000176,-0.00000132,0.00000201,0.00000212,0
 .00000230,0.00000243,-0.00000149,0.00000146,0.00000028,0.00000154,0.00
 000251,-0.00000066,0.00000089,-0.00000135,-0.00000230,0.00000525,-0.00
 000291,-0.00000778,0.00000157,-0.00000393,0.00000485,0.00000016,-0.000
 00115,-0.00000120,0.00000107,-0.00000082,0.00000053,0.00000094,-0.0000
 0028,-0.00000036,-0.00000041,0.00000088,-0.00000029,-0.00000033,0.0000
 0041,0.00000026,-0.00000032,0.00000013,-0.00000134,0.00000087,0.000000
 67,-0.00000114,-0.00000069,0.00000026,-0.00000024,0.00000017,0.0000006
 9,0.00000058,-0.00000004,-0.00000021,0.00045828,-0.00058505,-0.0002365
 5,-0.00000409,-0.00032359,0.00005927,-0.00000090,0.00000321,-0.0000019
 3,-0.00000006,-0.00000080,-0.00000169,-0.00000021,0.00001970,0.0000208
 6,-0.00000234,-0.00000421,0.00000437,-0.00000190,-0.00000010,-0.000000
 77,-0.00000023,0.00000134,0.00000113,-0.00001473,-0.00000293,0.0000057
 7,-0.00068241,0.00240912,-0.00053262,0.00074614,0.00034522,0.00031571,
 0.00114527,-0.00470835,0.00026813,-0.00002724,-0.00010966,0.00015524,0
 .00015816,0.00007338,0.00001322,-0.00003533,0.00001158,0.00018999,-0.0
 0000557,0.00018018,0.00005318,0.00000097,-0.00000717,0.00110323,-0.000
 04979,0.00083870,-0.00025055,0.00000082,0.00007085,-0.00002973,-0.0001
 9985,-0.00028449,0.00005211,-0.00003167,-0.00001152,-0.00006560,-0.000
 01499,0.00003890,0.00001418,0.00000455,-0.00001057,-0.00005795,0.00002
 068,0.00009851,-0.00002282,-0.00008105,-0.00006728,0.00003071,0.000076
 33,-0.00000026,-0.00000887,0.00002153,0.00000600,0.00009241,-0.0000615
 7,0.00003146,-0.00002122,0.00000923,0.00000870,0.00002579,0.00000344,-
 0.00000470,-0.00001364,-0.00000444,0.00000572,-0.00067214,-0.00017015,
 -0.00084474,0.00001027,-0.00004175,0.00000575,-0.00009026,0.00015972,0
 .00009775,0.00003672,-0.00000900,0.00000609,0.00019775,-0.00021022,-0.
 00024363,-0.00000397,0.00003767,0.00000475,-0.00000825,-0.00000432,-0.
 00004043,-0.00000826,0.00000723,-0.00001266,-0.00000681,0.00001577,0.0
 0003897,0.00010132,0.00011661,0.00020593,-0.00000740,0.00001074,-0.000
 00249,-0.00001383,-0.00000142,0.00001445,-0.00002293,-0.00000235,-0.00
 000827,0.00000710,0.00000139,-0.00000516,0.00000774,0.00000172,0.00000
 224,0.00000506,-0.00000432,-0.00000122,-0.00012342,0.00025244,-0.00048
 949,0.00000107,-0.00001167,-0.00001553,-0.00002874,-0.00008877,0.00002
 597,0.00000983,-0.00000968,-0.00000587,-0.00001299,0.00000553,0.000003
 39,0.00000466,0.00000098,-0.00000251,0.00001374,-0.00000763,0.00001116
 ,0.00000321,-0.00000553,-0.00000033,-0.00004767,-0.00005668,-0.0000187
 2,0.00001567,-0.00000624,-0.00000833,-0.00000202,-0.00000159,-0.000001
 57,-0.00000682,-0.00000013,-0.00000019,-0.00005172,0.00007987,0.000048
 17,-0.00025992,-0.00006596,0.00003298,-0.00011472,0.00014347,-0.000092
 85,-0.00000453,0.00000340,-0.00000592,0.00000367,-0.00001089,0.0000263
 5,0.00000615,0.00000591,-0.00001004,0.00000080,0.00000674,-0.00000230,
 -0.00000094,-0.00000154,0.00000395,-0.00001681,0.00000965,-0.00000389,
 -0.00000046,0.00000163,-0.00000012,0.00000957,0.00000011,0.00001035,0.
 00000617,0.00000348,0.00000173,0.00000044,0.00000390,-0.00000030,-0.00
 001034,-0.00000894,0.00000414,-0.00000037,0.00000086,-0.00000078,-0.00
 000034,0.00000332,-0.00000504,0.00020637,0.00025830,-0.00067277,-0.000
 02346,-0.00002121,0.00002303,-0.00000668,-0.00000308,0.00000141,-0.000
 00038,-0.00000169,-0.00000006,-0.00000007,0.00000127,0.00000094,-0.000
 01036,0.00000331,-0.00000574,0.00000105,-0.00000089,-0.00000023,0.0000
 0274,-0.00000090,-0.00000019,0.00000331,-0.00000216,0.00000017,0.00000
 666,-0.00000476,-0.00000136,-0.00001058,0.00000767,0.00000646,0.000002
 81,-0.00000138,0.00000248,-0.00000123,-0.00000037,-0.00000086,-0.00000
 183,0.00000064,-0.00000037,-0.00000070,-0.00000083,0.00000062,-0.00000
 097,0.00000041,0.00000043,0.00000344,-0.00000196,-0.00000418,0.0000017
 2,0.00000133,-0.00000064,-0.00000095,0.00000020,0.00000106,0.00000015,
 0.00000103,-0.00000020,0.00031672,-0.00051626,0.00012101,-0.00008410,-
 0.00008426,0.00012291,0.00000191,-0.00000711,0.00000196,0.00000689,-0.
 00000357,0.00000215,0.00000889,-0.00000851,0.00000442,0.00000578,-0.00
 002157,-0.00000149,0.00000159,-0.00000540,0.00000322,-0.00000628,0.000
 00548,-0.00000213,0.00000601,-0.00009071,-0.00011013,-0.00066466,-0.00
 133203,0.00528112\\-0.00000061,0.00000009,-0.00000023,0.00000071,0.000
 00059,0.00000058,-0.00000003,-0.00000013,-0.00000023,-0.00000086,0.000
 00043,0.00000066,-0.00000066,-0.00000027,-0.00000032,0.00000086,0.0000
 0087,0.00000101,0.00000025,-0.00000095,-0.00000066,-0.00000073,0.00000
 083,0.00000102,-0.00000008,-0.00000071,-0.00000048,0.00000020,0.000001
 10,0.00000051,-0.00000049,-0.00000096,-0.00000088,0.00000022,0.0000017
 0,0.00000110,-0.00000040,-0.00000149,-0.00000116,0.00000059,0.00000075
 ,0.00000073,0.00000073,-0.00000080,-0.00000049,0.00000061,0.00000149,0
 .00000110,0.00000012,-0.00000151,-0.00000101,-0.00000004,0.00000122,0.
 00000107,-0.00000066,-0.00000127,-0.00000094,0.00000036,0.00000212,0.0
 0000156,-0.00000057,-0.00000196,-0.00000145,-0.00000011,0.00000080,0.0
 0000030,-0.00000080,-0.00000063,-0.00000065,-0.00000099,0.00000039,0.0
 0000013,-0.00000139,-0.00000003,-0.00000034,0.00000160,0.00000028,0.00
 000028,0.00000041,0.00000078,0.00000051,0.00000114,0.00000127,0.000000
 95,0.00000054,-0.00000042,-0.00000016,0.00000094,-0.00000104,-0.000000
 69,0.00000093,-0.00000080,-0.00000034,0.00000006,0.00000222,0.00000156
 ,0.00000031,0.00000237,0.00000165,0.00000099,0.00000214,0.00000163,-0.
 00000042,-0.00000226,-0.00000165,-0.00000099,-0.00000200,-0.00000154,-
 0.00000005,-0.00000217,-0.00000161,-0.00000073,-0.00000021,-0.00000015
 ,-0.00000157,-0.00000040,-0.00000040,-0.00000084,-0.00000029,-0.000000
 23,-0.00000105,-0.00000054,-0.00000057,0.00000082,0.00000165,0.0000013
 1,0.00000027,-0.00000162,-0.00000103,-0.00000017,0.00000158,0.00000106
 ,-0.00000098,-0.00000144,-0.00000115,-0.00000071,0.00000092,0.00000051
 ,-0.00000117,-0.00000085,-0.00000076,-0.00000115,0.00000049,0.00000022
 ,-0.00000145,0.00000008,-0.00000008,0.00000132,0.00000035,0.00000061,0
 .00000078,0.00000016,0.00000007,0.00000118,0.00000061,0.00000093,0.000
 00022,0.00000103,0.00000080,0.00000018,0.00000059,0.00000042,0.0000006
 3,0.00000057,0.00000054,0.00000132,0.00000098,0.00000093,0.00000145,0.
 00000124,0.00000108,0.00000097,0.00000147,0.00000118,0.00000089,-0.000
 00034,-0.00000008,0.00000036,-0.00000009,-0.00000010,0.00000027,-0.000
 00046,-0.00000030,0.00000130,-0.00000103,-0.00000054,0.00000073,-0.000
 00122,-0.00000079,0.00000108,-0.00000144,-0.00000083,0.00000112,-0.000
 00104,-0.00000054,0.00000099,-0.00000049,-0.00000026,0.00000136,-0.000
 00057,-0.00000022,0.00000015,0.00000258,0.00000185,0.00000016,0.000002
 04,0.00000153,-0.00000032,0.00000228,0.00000155,0.00000029,0.00000271,
 0.00000197,-0.00000010,0.00000239,0.00000171,0.00000054,0.00000228,0.0
 0000170,0.00000121,0.00000199,0.00000161,0.00000107,0.00000190,0.00000
 152,0.00000100,0.00000244,0.00000185,-0.00000059,-0.00000257,-0.000001
 91,-0.00000073,-0.00000211,-0.00000161,-0.00000007,-0.00000228,-0.0000
 0164,-0.00000101,-0.00000182,-0.00000139,-0.00000128,-0.00000186,-0.00
 000154,-0.00000111,-0.00000231,-0.00000182,-0.00000023,-0.00000254,-0.
 00000186,0.00000033,-0.00000230,-0.00000158,-0.00000007,-0.00000209,-0
 .00000144,-0.00000018,-0.00000021,-0.00000016,-0.00000037,0.00000023,0
 .00000009,-0.00000180,-0.00000010,-0.00000037,-0.00000171,-0.00000056,
 -0.00000067,-0.00000075,-0.00000049,-0.00000037,-0.00000127,-0.0000000
 1,-0.00000029,-0.00000147,-0.00000078,-0.00000074,-0.00000094,-0.00000
 084,-0.00000070,-0.00000065,0.00000028,-0.00000005,0.00000077,0.,-0.00
 000038\\\@
 The archive entry for this job was punched.


 Some scientists claim that hydrogen, because it is so
 plentiful, is the basic building block of the universe. 
 I dispute that. I say that stupidity is far more
 abundant than hydrogen, and THAT is the basic building 
 block of the universe.
                   --Frank Zappa
 Job cpu time:       5 days 13 hours 41 minutes 53.4 seconds.
 Elapsed time:       0 days  1 hours 24 minutes 43.2 seconds.
 File lengths (MBytes):  RWF=  13006 Int=      0 D2E=      0 Chk=    462 Scr=      1
 Normal termination of Gaussian 16 at Thu Dec 11 14:49:46 2025.
1461671.99user 7152.46system 4:19:53elapsed 9419%CPU (0avgtext+0avgdata 62431800maxresident)k
415192inputs+6143792outputs (15048major+782595873minor)pagefaults 0swaps
