 Entering Gaussian System, Link 0=g16
 Initial command:
 /common/software/install/migrated/gaussian/g16.c01.avx2/g16/l1.exe "/tmp/quach062/44781378/Gau-1521882.inp" -scrdir="/tmp/quach062/44781378/"
 Entering Link 1 = /common/software/install/migrated/gaussian/g16.c01.avx2/g16/l1.exe PID=   1521883.
  
 Copyright (c) 1988-2019, Gaussian, Inc.  All Rights Reserved.
  
 This is part of the Gaussian(R) 16 program.  It is based on
 the Gaussian(R) 09 system (copyright 2009, Gaussian, Inc.),
 the Gaussian(R) 03 system (copyright 2003, Gaussian, Inc.),
 the Gaussian(R) 98 system (copyright 1998, Gaussian, Inc.),
 the Gaussian(R) 94 system (copyright 1995, Gaussian, Inc.),
 the Gaussian 92(TM) system (copyright 1992, Gaussian, Inc.),
 the Gaussian 90(TM) system (copyright 1990, Gaussian, Inc.),
 the Gaussian 88(TM) system (copyright 1988, Gaussian, Inc.),
 the Gaussian 86(TM) system (copyright 1986, Carnegie Mellon
 University), and the Gaussian 82(TM) system (copyright 1983,
 Carnegie Mellon University). Gaussian is a federally registered
 trademark of Gaussian, Inc.
  
 This software contains proprietary and confidential information,
 including trade secrets, belonging to Gaussian, Inc.
  
 This software is provided under written license and may be
 used, copied, transmitted, or stored only in accord with that
 written license.
  
 The following legend is applicable only to US Government
 contracts under FAR:
  
                    RESTRICTED RIGHTS LEGEND
  
 Use, reproduction and disclosure by the US Government is
 subject to restrictions as set forth in subparagraphs (a)
 and (c) of the Commercial Computer Software - Restricted
 Rights clause in FAR 52.227-19.
  
 Gaussian, Inc.
 340 Quinnipiac St., Bldg. 40, Wallingford CT 06492
  
  
 ---------------------------------------------------------------
 Warning -- This program may not be used in any manner that
 competes with the business of Gaussian, Inc. or will provide
 assistance to any competitor of Gaussian, Inc.  The licensee
 of this program is prohibited from giving any competitor of
 Gaussian, Inc. access to this program.  By using this program,
 the user acknowledges that Gaussian, Inc. is engaged in the
 business of creating and licensing software in the field of
 computational chemistry and represents and warrants to the
 licensee that it is not a competitor of Gaussian, Inc. and that
 it will not use this program in any manner prohibited above.
 ---------------------------------------------------------------
  

 Cite this work as:
 Gaussian 16, Revision C.01,
 M. J. Frisch, G. W. Trucks, H. B. Schlegel, G. E. Scuseria, 
 M. A. Robb, J. R. Cheeseman, G. Scalmani, V. Barone, 
 G. A. Petersson, H. Nakatsuji, X. Li, M. Caricato, A. V. Marenich, 
 J. Bloino, B. G. Janesko, R. Gomperts, B. Mennucci, H. P. Hratchian, 
 J. V. Ortiz, A. F. Izmaylov, J. L. Sonnenberg, D. Williams-Young, 
 F. Ding, F. Lipparini, F. Egidi, J. Goings, B. Peng, A. Petrone, 
 T. Henderson, D. Ranasinghe, V. G. Zakrzewski, J. Gao, N. Rega, 
 G. Zheng, W. Liang, M. Hada, M. Ehara, K. Toyota, R. Fukuda, 
 J. Hasegawa, M. Ishida, T. Nakajima, Y. Honda, O. Kitao, H. Nakai, 
 T. Vreven, K. Throssell, J. A. Montgomery, Jr., J. E. Peralta, 
 F. Ogliaro, M. J. Bearpark, J. J. Heyd, E. N. Brothers, K. N. Kudin, 
 V. N. Staroverov, T. A. Keith, R. Kobayashi, J. Normand, 
 K. Raghavachari, A. P. Rendell, J. C. Burant, S. S. Iyengar, 
 J. Tomasi, M. Cossi, J. M. Millam, M. Klene, C. Adamo, R. Cammi, 
 J. W. Ochterski, R. L. Martin, K. Morokuma, O. Farkas, 
 J. B. Foresman, and D. J. Fox, Gaussian, Inc., Wallingford CT, 2019.
 
 ******************************************
 Gaussian 16:  ES64L-G16RevC.01  3-Jul-2019
                10-Dec-2025 
 ******************************************
 %chk=CoIIIHCl_S_CA.chk
 %nprocshared=96
 Will use up to   96 processors via shared memory.
 %mem=59800MB
 ----------------------------------------------------------------------
 # opt=calcall # freq # pop=hirshfeld # m06l/genecp/auto # nosymm integ
 ral=grid=ultrafine # scf=(tight,intrep,xqc) # SCRF=(SMD,Solvent=n,n-Di
 MethylFormamide)
 ----------------------------------------------------------------------
 1/10=4,18=20,19=15,26=6,38=1/1,3;
 2/9=110,12=2,15=1,17=6,18=5,40=1/2;
 3/5=7,11=2,16=1,17=8,25=1,30=1,70=32201,71=2,72=148,74=-53,75=-5,82=28,140=1/1,2,3;
 4//1;
 5/5=2,8=3,13=1,17=20,32=2,38=5,53=148/2,8;
 8/6=4,10=90,11=11/1;
 11/6=1,8=1,9=11,15=111,16=1,31=1/1,2,10;
 10/6=1,31=1/2;
 6/7=2,8=2,9=2,10=2,18=1,28=1,79=1/1;
 7/10=1,25=1,30=1/1,2,3,16;
 1/10=4,18=20,19=15,26=6/3(3);
 2/9=110,15=1/2;
 7/8=1,9=1,25=1,30=1,44=-1/16;
 99//99;
 2/9=110,15=1/2;
 3/5=7,6=1,11=2,16=1,17=8,25=1,30=1,70=32205,71=2,72=148,74=-53,75=-5,82=7,140=1/1,2,3;
 4/5=5,16=3,69=1/1;
 5/5=2,8=3,13=1,17=20,32=2,38=5,53=148/2,8;
 8/6=4,10=90,11=11/1;
 11/6=1,8=1,9=11,15=111,16=1,31=1/1,2,10;
 10/6=1,31=1/2;
 7/10=1,25=1,30=1/1,2,3,16;
 1/10=4,18=20,19=15,26=6/3(-8);
 2/9=110,15=1/2;
 6/7=2,8=2,9=2,10=2,18=1,19=2,28=1,79=1/1;
 7/8=1,9=1,25=1,30=1,44=-1/16;
 99//99;
 -----------
 Input: Co-H
 -----------
 Symbolic Z-matrix:
 Charge = -1 Multiplicity = 1
 Co                    0.04335   0.313    -1.47491 
 O                     1.28761  -1.14751  -1.50714 
 O                    -1.26996  -0.97027  -0.92371 
 N                     1.30989   1.57442  -2.08158 
 N                    -1.13601   1.78746  -1.32907 
 C                     3.33015  -2.31076  -1.68047 
 C                    -3.41638  -1.92128  -0.703 
 C                     2.54091  -1.10993  -1.80905 
 C                    -2.54596  -0.78666  -0.86104 
 C                     3.20961   0.07092  -2.27223 
 C                    -3.16162   0.50904  -0.92756 
 C                     5.32499  -1.12022  -2.5445 
 C                    -5.3925   -0.43304  -0.58297 
 C                     2.69175  -3.58576  -1.1193 
 C                    -2.8379   -3.34014  -0.75667 
 C                     4.66131  -2.27039  -2.05613 
 C                    -4.78091  -1.70331  -0.56439 
 C                     4.57722   0.03356  -2.62963 
 C                    -4.55541   0.64926  -0.7743 
 C                     6.80003  -1.2099   -2.93193 
 C                    -6.90063  -0.22957  -0.41662 
 C                     2.54756   1.33439  -2.37313 
 C                    -2.4039    1.71425  -1.09055 
 C                     0.76878   2.92913  -2.25819 
 C                    -0.3939    3.06545  -1.27198 
 C                     1.51233  -4.03079  -1.99704 
 C                     2.19605  -3.32684   0.31281 
 C                     3.68404  -4.74819  -1.0579 
 C                    -1.76633  -3.55381   0.32398 
 C                    -3.91067  -4.41098  -0.54863 
 C                    -2.21975  -3.56342  -2.14603 
 C                     7.34223   0.12915  -3.4275 
 C                     7.62833  -1.64676  -1.7159 
 C                     6.9755   -2.24679  -4.04977 
 C                    -7.46917   0.4512   -1.6688 
 C                    -7.1671    0.66888   0.79852 
 C                    -7.64365  -1.54853  -0.20833 
 C                     0.32563   3.14377  -3.70561 
 C                    -1.19145   4.3413   -1.50766 
 C                    -0.42384   4.45605  -3.88205 
 C                    -1.63153   4.5107   -2.95559 
 H                     5.24629  -3.1807   -1.96802 
 H                    -5.4199   -2.56892  -0.43971 
 H                     5.0219    0.96155  -2.97974 
 H                    -4.96301   1.65856  -0.81218 
 H                     3.15867   2.17307  -2.72448 
 H                    -2.9711    2.64279  -0.98669 
 H                     1.53923   3.66818  -1.99871 
 H                     0.03606   3.09567  -0.26119 
 H                     1.07091  -4.9503   -1.59563 
 H                     0.73989  -3.26361  -2.03999 
 H                     1.84426  -4.24429  -3.01938 
 H                     3.03055  -3.06418   0.97223 
 H                     1.46563  -2.5169    0.34245 
 H                     1.7256   -4.2291    0.71994 
 H                     3.1835   -5.63002  -0.64597 
 H                     4.06482  -5.0216   -2.04734 
 H                     4.54263  -4.5303   -0.41451 
 H                    -1.403    -4.5875    0.29063 
 H                    -0.91882  -2.88364   0.18379 
 H                    -2.17911  -3.38385   1.32489 
 H                    -3.4481   -5.40142  -0.6043 
 H                    -4.3938   -4.33026   0.43087 
 H                    -4.69224  -4.37458  -1.31401 
 H                    -2.99058  -3.51045  -2.92338 
 H                    -1.46185  -2.80994  -2.36864 
 H                    -1.75774  -4.55561  -2.20682 
 H                     8.39766   0.02698  -3.69806 
 H                     6.80839   0.48362  -4.31486 
 H                     7.27368   0.90754  -2.66101 
 H                     8.68867  -1.72567  -1.97927 
 H                     7.53993  -0.92553  -0.89687 
 H                     7.31069  -2.62244  -1.33624 
 H                     6.63523  -3.23948  -3.74019 
 H                     6.40997  -1.96464  -4.94376 
 H                     8.02981  -2.33385  -4.33402 
 H                    -8.54771   0.61426  -1.56588 
 H                    -7.00356   1.42533  -1.84557 
 H                    -7.30726  -0.16221  -2.5611 
 H                    -6.78279   0.21607   1.71834 
 H                    -6.69521   1.6496    0.68743 
 H                    -8.24222   0.83318   0.93071 
 H                    -8.71408  -1.3556   -0.08737 
 H                    -7.52748  -2.22561  -1.06041 
 H                    -7.30224  -2.0753    0.68844 
 H                    -0.31311   2.30039  -3.99177 
 H                     1.20977   3.10041  -4.35171 
 H                    -0.53224   5.17486  -1.23482 
 H                    -2.03699   4.39944  -0.81608 
 H                    -0.73141   4.56959  -4.92661 
 H                     0.24115   5.30264  -3.65982 
 H                    -2.16943   5.45697  -3.07133 
 H                    -2.33755   3.71547  -3.2307 
 H                     0.43321   0.58641  -0.09876 
 Cl                   -0.69298  -0.2668   -3.92914 
 
 Add virtual bond connecting atoms Cl95       and Co1        Dist= 4.96D+00.
 Add virtual bond connecting atoms Cl95       and H86        Dist= 4.91D+00.

 GradGradGradGradGradGradGradGradGradGradGradGradGradGradGradGradGradGrad
 Berny optimization.
 Initialization pass.
                           ----------------------------
                           !    Initial Parameters    !
                           ! (Angstroms and Degrees)  !
 --------------------------                            --------------------------
 ! Name  Definition              Value          Derivative Info.                !
 --------------------------------------------------------------------------------
 ! R1    R(1,2)                  1.9189         calculate D2E/DX2 analytically  !
 ! R2    R(1,3)                  1.9171         calculate D2E/DX2 analytically  !
 ! R3    R(1,4)                  1.8877         calculate D2E/DX2 analytically  !
 ! R4    R(1,5)                  1.8937         calculate D2E/DX2 analytically  !
 ! R5    R(1,94)                 1.4562         calculate D2E/DX2 analytically  !
 ! R6    R(1,95)                 2.6271         calculate D2E/DX2 analytically  !
 ! R7    R(2,8)                  1.2897         calculate D2E/DX2 analytically  !
 ! R8    R(3,9)                  1.2907         calculate D2E/DX2 analytically  !
 ! R9    R(4,22)                 1.294          calculate D2E/DX2 analytically  !
 ! R10   R(4,24)                 1.4694         calculate D2E/DX2 analytically  !
 ! R11   R(5,23)                 1.2922         calculate D2E/DX2 analytically  !
 ! R12   R(5,25)                 1.4789         calculate D2E/DX2 analytically  !
 ! R13   R(6,8)                  1.4427         calculate D2E/DX2 analytically  !
 ! R14   R(6,14)                 1.5323         calculate D2E/DX2 analytically  !
 ! R15   R(6,16)                 1.3837         calculate D2E/DX2 analytically  !
 ! R16   R(7,9)                  1.4387         calculate D2E/DX2 analytically  !
 ! R17   R(7,15)                 1.5332         calculate D2E/DX2 analytically  !
 ! R18   R(7,17)                 1.3888         calculate D2E/DX2 analytically  !
 ! R19   R(8,10)                 1.4339         calculate D2E/DX2 analytically  !
 ! R20   R(9,11)                 1.4361         calculate D2E/DX2 analytically  !
 ! R21   R(10,18)                1.414          calculate D2E/DX2 analytically  !
 ! R22   R(10,22)                1.43           calculate D2E/DX2 analytically  !
 ! R23   R(11,19)                1.4092         calculate D2E/DX2 analytically  !
 ! R24   R(11,23)                1.4329         calculate D2E/DX2 analytically  !
 ! R25   R(12,16)                1.4149         calculate D2E/DX2 analytically  !
 ! R26   R(12,18)                1.3775         calculate D2E/DX2 analytically  !
 ! R27   R(12,20)                1.5277         calculate D2E/DX2 analytically  !
 ! R28   R(13,17)                1.41           calculate D2E/DX2 analytically  !
 ! R29   R(13,19)                1.3816         calculate D2E/DX2 analytically  !
 ! R30   R(13,21)                1.5309         calculate D2E/DX2 analytically  !
 ! R31   R(14,26)                1.5361         calculate D2E/DX2 analytically  !
 ! R32   R(14,27)                1.5374         calculate D2E/DX2 analytically  !
 ! R33   R(14,28)                1.5296         calculate D2E/DX2 analytically  !
 ! R34   R(15,29)                1.5368         calculate D2E/DX2 analytically  !
 ! R35   R(15,30)                1.53           calculate D2E/DX2 analytically  !
 ! R36   R(15,31)                1.537          calculate D2E/DX2 analytically  !
 ! R37   R(16,42)                1.0856         calculate D2E/DX2 analytically  !
 ! R38   R(17,43)                1.0831         calculate D2E/DX2 analytically  !
 ! R39   R(18,44)                1.087          calculate D2E/DX2 analytically  !
 ! R40   R(19,45)                1.0892         calculate D2E/DX2 analytically  !
 ! R41   R(20,32)                1.5273         calculate D2E/DX2 analytically  !
 ! R42   R(20,33)                1.5348         calculate D2E/DX2 analytically  !
 ! R43   R(20,34)                1.5348         calculate D2E/DX2 analytically  !
 ! R44   R(21,35)                1.5345         calculate D2E/DX2 analytically  !
 ! R45   R(21,36)                1.5345         calculate D2E/DX2 analytically  !
 ! R46   R(21,37)                1.5281         calculate D2E/DX2 analytically  !
 ! R47   R(22,46)                1.0956         calculate D2E/DX2 analytically  !
 ! R48   R(23,47)                1.093          calculate D2E/DX2 analytically  !
 ! R49   R(24,25)                1.5307         calculate D2E/DX2 analytically  !
 ! R50   R(24,38)                1.5289         calculate D2E/DX2 analytically  !
 ! R51   R(24,48)                1.0987         calculate D2E/DX2 analytically  !
 ! R52   R(25,39)                1.523          calculate D2E/DX2 analytically  !
 ! R53   R(25,49)                1.0989         calculate D2E/DX2 analytically  !
 ! R54   R(26,50)                1.0961         calculate D2E/DX2 analytically  !
 ! R55   R(26,51)                1.0895         calculate D2E/DX2 analytically  !
 ! R56   R(26,52)                1.0959         calculate D2E/DX2 analytically  !
 ! R57   R(27,53)                1.0955         calculate D2E/DX2 analytically  !
 ! R58   R(27,54)                1.0911         calculate D2E/DX2 analytically  !
 ! R59   R(27,55)                1.096          calculate D2E/DX2 analytically  !
 ! R60   R(28,56)                1.0945         calculate D2E/DX2 analytically  !
 ! R61   R(28,57)                1.0949         calculate D2E/DX2 analytically  !
 ! R62   R(28,58)                1.0948         calculate D2E/DX2 analytically  !
 ! R63   R(29,59)                1.0962         calculate D2E/DX2 analytically  !
 ! R64   R(29,60)                1.0895         calculate D2E/DX2 analytically  !
 ! R65   R(29,61)                1.096          calculate D2E/DX2 analytically  !
 ! R66   R(30,62)                1.0946         calculate D2E/DX2 analytically  !
 ! R67   R(30,63)                1.0952         calculate D2E/DX2 analytically  !
 ! R68   R(30,64)                1.0945         calculate D2E/DX2 analytically  !
 ! R69   R(31,65)                1.096          calculate D2E/DX2 analytically  !
 ! R70   R(31,66)                1.0917         calculate D2E/DX2 analytically  !
 ! R71   R(31,67)                1.0962         calculate D2E/DX2 analytically  !
 ! R72   R(32,68)                1.0943         calculate D2E/DX2 analytically  !
 ! R73   R(32,69)                1.0945         calculate D2E/DX2 analytically  !
 ! R74   R(32,70)                1.0946         calculate D2E/DX2 analytically  !
 ! R75   R(33,71)                1.0954         calculate D2E/DX2 analytically  !
 ! R76   R(33,72)                1.0949         calculate D2E/DX2 analytically  !
 ! R77   R(33,73)                1.0941         calculate D2E/DX2 analytically  !
 ! R78   R(34,74)                1.0941         calculate D2E/DX2 analytically  !
 ! R79   R(34,75)                1.0948         calculate D2E/DX2 analytically  !
 ! R80   R(34,76)                1.0954         calculate D2E/DX2 analytically  !
 ! R81   R(35,77)                1.0956         calculate D2E/DX2 analytically  !
 ! R82   R(35,78)                1.0941         calculate D2E/DX2 analytically  !
 ! R83   R(35,79)                1.0948         calculate D2E/DX2 analytically  !
 ! R84   R(36,80)                1.0949         calculate D2E/DX2 analytically  !
 ! R85   R(36,81)                1.094          calculate D2E/DX2 analytically  !
 ! R86   R(36,82)                1.0956         calculate D2E/DX2 analytically  !
 ! R87   R(37,83)                1.0944         calculate D2E/DX2 analytically  !
 ! R88   R(37,84)                1.0945         calculate D2E/DX2 analytically  !
 ! R89   R(37,85)                1.0946         calculate D2E/DX2 analytically  !
 ! R90   R(38,40)                1.5215         calculate D2E/DX2 analytically  !
 ! R91   R(38,86)                1.096          calculate D2E/DX2 analytically  !
 ! R92   R(38,87)                1.0959         calculate D2E/DX2 analytically  !
 ! R93   R(39,41)                1.5228         calculate D2E/DX2 analytically  !
 ! R94   R(39,88)                1.0972         calculate D2E/DX2 analytically  !
 ! R95   R(39,89)                1.0939         calculate D2E/DX2 analytically  !
 ! R96   R(40,41)                1.5231         calculate D2E/DX2 analytically  !
 ! R97   R(40,90)                1.0948         calculate D2E/DX2 analytically  !
 ! R98   R(40,91)                1.0992         calculate D2E/DX2 analytically  !
 ! R99   R(41,92)                1.0946         calculate D2E/DX2 analytically  !
 ! R100  R(41,93)                1.0984         calculate D2E/DX2 analytically  !
 ! R101  R(86,95)                2.5959         calculate D2E/DX2 analytically  !
 ! A1    A(2,1,3)               86.5347         calculate D2E/DX2 analytically  !
 ! A2    A(2,1,4)               93.9075         calculate D2E/DX2 analytically  !
 ! A3    A(2,1,94)              89.1507         calculate D2E/DX2 analytically  !
 ! A4    A(2,1,95)              89.8897         calculate D2E/DX2 analytically  !
 ! A5    A(3,1,5)               94.1526         calculate D2E/DX2 analytically  !
 ! A6    A(3,1,94)              92.1418         calculate D2E/DX2 analytically  !
 ! A7    A(3,1,95)              85.9207         calculate D2E/DX2 analytically  !
 ! A8    A(4,1,5)               85.544          calculate D2E/DX2 analytically  !
 ! A9    A(4,1,94)              89.9209         calculate D2E/DX2 analytically  !
 ! A10   A(4,1,95)              92.0227         calculate D2E/DX2 analytically  !
 ! A11   A(5,1,94)              87.0058         calculate D2E/DX2 analytically  !
 ! A12   A(5,1,95)              93.9698         calculate D2E/DX2 analytically  !
 ! A13   A(1,2,8)              127.7246         calculate D2E/DX2 analytically  !
 ! A14   A(1,3,9)              126.5829         calculate D2E/DX2 analytically  !
 ! A15   A(1,4,22)             126.1712         calculate D2E/DX2 analytically  !
 ! A16   A(1,4,24)             114.0552         calculate D2E/DX2 analytically  !
 ! A17   A(22,4,24)            119.7453         calculate D2E/DX2 analytically  !
 ! A18   A(1,5,23)             125.5318         calculate D2E/DX2 analytically  !
 ! A19   A(1,5,25)             111.3023         calculate D2E/DX2 analytically  !
 ! A20   A(23,5,25)            122.2882         calculate D2E/DX2 analytically  !
 ! A21   A(8,6,14)             119.8205         calculate D2E/DX2 analytically  !
 ! A22   A(8,6,16)             118.5412         calculate D2E/DX2 analytically  !
 ! A23   A(14,6,16)            121.6328         calculate D2E/DX2 analytically  !
 ! A24   A(9,7,15)             119.8478         calculate D2E/DX2 analytically  !
 ! A25   A(9,7,17)             118.7916         calculate D2E/DX2 analytically  !
 ! A26   A(15,7,17)            121.2961         calculate D2E/DX2 analytically  !
 ! A27   A(2,8,6)              119.1105         calculate D2E/DX2 analytically  !
 ! A28   A(2,8,10)             123.5592         calculate D2E/DX2 analytically  !
 ! A29   A(6,8,10)             117.3303         calculate D2E/DX2 analytically  !
 ! A30   A(3,9,7)              119.4232         calculate D2E/DX2 analytically  !
 ! A31   A(3,9,11)             123.3639         calculate D2E/DX2 analytically  !
 ! A32   A(7,9,11)             117.2099         calculate D2E/DX2 analytically  !
 ! A33   A(8,10,18)            120.7253         calculate D2E/DX2 analytically  !
 ! A34   A(8,10,22)            122.3107         calculate D2E/DX2 analytically  !
 ! A35   A(18,10,22)           116.9546         calculate D2E/DX2 analytically  !
 ! A36   A(9,11,19)            120.582          calculate D2E/DX2 analytically  !
 ! A37   A(9,11,23)            122.5097         calculate D2E/DX2 analytically  !
 ! A38   A(19,11,23)           116.8528         calculate D2E/DX2 analytically  !
 ! A39   A(16,12,18)           116.5881         calculate D2E/DX2 analytically  !
 ! A40   A(16,12,20)           119.5194         calculate D2E/DX2 analytically  !
 ! A41   A(18,12,20)           123.8906         calculate D2E/DX2 analytically  !
 ! A42   A(17,13,19)           116.4095         calculate D2E/DX2 analytically  !
 ! A43   A(17,13,21)           123.0686         calculate D2E/DX2 analytically  !
 ! A44   A(19,13,21)           120.5195         calculate D2E/DX2 analytically  !
 ! A45   A(6,14,26)            110.5905         calculate D2E/DX2 analytically  !
 ! A46   A(6,14,27)            109.5925         calculate D2E/DX2 analytically  !
 ! A47   A(6,14,28)            112.1335         calculate D2E/DX2 analytically  !
 ! A48   A(26,14,27)           109.4814         calculate D2E/DX2 analytically  !
 ! A49   A(26,14,28)           107.5095         calculate D2E/DX2 analytically  !
 ! A50   A(27,14,28)           107.4428         calculate D2E/DX2 analytically  !
 ! A51   A(7,15,29)            111.5394         calculate D2E/DX2 analytically  !
 ! A52   A(7,15,30)            112.2345         calculate D2E/DX2 analytically  !
 ! A53   A(7,15,31)            108.5319         calculate D2E/DX2 analytically  !
 ! A54   A(29,15,30)           107.2165         calculate D2E/DX2 analytically  !
 ! A55   A(29,15,31)           109.5735         calculate D2E/DX2 analytically  !
 ! A56   A(30,15,31)           107.6521         calculate D2E/DX2 analytically  !
 ! A57   A(6,16,12)            124.6575         calculate D2E/DX2 analytically  !
 ! A58   A(6,16,42)            118.1556         calculate D2E/DX2 analytically  !
 ! A59   A(12,16,42)           117.1861         calculate D2E/DX2 analytically  !
 ! A60   A(7,17,13)            124.4915         calculate D2E/DX2 analytically  !
 ! A61   A(7,17,43)            117.7571         calculate D2E/DX2 analytically  !
 ! A62   A(13,17,43)           117.7502         calculate D2E/DX2 analytically  !
 ! A63   A(10,18,12)           122.1079         calculate D2E/DX2 analytically  !
 ! A64   A(10,18,44)           117.0345         calculate D2E/DX2 analytically  !
 ! A65   A(12,18,44)           120.8576         calculate D2E/DX2 analytically  !
 ! A66   A(11,19,13)           122.4385         calculate D2E/DX2 analytically  !
 ! A67   A(11,19,45)           117.2948         calculate D2E/DX2 analytically  !
 ! A68   A(13,19,45)           120.2667         calculate D2E/DX2 analytically  !
 ! A69   A(12,20,32)           111.9371         calculate D2E/DX2 analytically  !
 ! A70   A(12,20,33)           109.6852         calculate D2E/DX2 analytically  !
 ! A71   A(12,20,34)           109.558          calculate D2E/DX2 analytically  !
 ! A72   A(32,20,33)           108.3634         calculate D2E/DX2 analytically  !
 ! A73   A(32,20,34)           108.3855         calculate D2E/DX2 analytically  !
 ! A74   A(33,20,34)           108.8486         calculate D2E/DX2 analytically  !
 ! A75   A(13,21,35)           109.591          calculate D2E/DX2 analytically  !
 ! A76   A(13,21,36)           109.5689         calculate D2E/DX2 analytically  !
 ! A77   A(13,21,37)           112.2781         calculate D2E/DX2 analytically  !
 ! A78   A(35,21,36)           108.7895         calculate D2E/DX2 analytically  !
 ! A79   A(35,21,37)           108.3002         calculate D2E/DX2 analytically  !
 ! A80   A(36,21,37)           108.2395         calculate D2E/DX2 analytically  !
 ! A81   A(4,22,10)            126.2149         calculate D2E/DX2 analytically  !
 ! A82   A(4,22,46)            117.6311         calculate D2E/DX2 analytically  !
 ! A83   A(10,22,46)           116.1522         calculate D2E/DX2 analytically  !
 ! A84   A(5,23,11)            125.9794         calculate D2E/DX2 analytically  !
 ! A85   A(5,23,47)            118.5923         calculate D2E/DX2 analytically  !
 ! A86   A(11,23,47)           115.4236         calculate D2E/DX2 analytically  !
 ! A87   A(4,24,25)            106.5218         calculate D2E/DX2 analytically  !
 ! A88   A(4,24,38)            110.4843         calculate D2E/DX2 analytically  !
 ! A89   A(4,24,48)            109.4833         calculate D2E/DX2 analytically  !
 ! A90   A(25,24,38)           112.1662         calculate D2E/DX2 analytically  !
 ! A91   A(25,24,48)           108.6979         calculate D2E/DX2 analytically  !
 ! A92   A(38,24,48)           109.4153         calculate D2E/DX2 analytically  !
 ! A93   A(5,25,24)            106.2196         calculate D2E/DX2 analytically  !
 ! A94   A(5,25,39)            117.0755         calculate D2E/DX2 analytically  !
 ! A95   A(5,25,49)            104.8098         calculate D2E/DX2 analytically  !
 ! A96   A(24,25,39)           111.8811         calculate D2E/DX2 analytically  !
 ! A97   A(24,25,49)           107.3313         calculate D2E/DX2 analytically  !
 ! A98   A(39,25,49)           108.9182         calculate D2E/DX2 analytically  !
 ! A99   A(14,26,50)           110.059          calculate D2E/DX2 analytically  !
 ! A100  A(14,26,51)           111.2772         calculate D2E/DX2 analytically  !
 ! A101  A(14,26,52)           110.9128         calculate D2E/DX2 analytically  !
 ! A102  A(50,26,51)           108.6399         calculate D2E/DX2 analytically  !
 ! A103  A(50,26,52)           107.4683         calculate D2E/DX2 analytically  !
 ! A104  A(51,26,52)           108.3701         calculate D2E/DX2 analytically  !
 ! A105  A(14,27,53)           110.8215         calculate D2E/DX2 analytically  !
 ! A106  A(14,27,54)           111.4793         calculate D2E/DX2 analytically  !
 ! A107  A(14,27,55)           110.2297         calculate D2E/DX2 analytically  !
 ! A108  A(53,27,54)           108.3984         calculate D2E/DX2 analytically  !
 ! A109  A(53,27,55)           107.5033         calculate D2E/DX2 analytically  !
 ! A110  A(54,27,55)           108.2807         calculate D2E/DX2 analytically  !
 ! A111  A(14,28,56)           109.3134         calculate D2E/DX2 analytically  !
 ! A112  A(14,28,57)           112.2793         calculate D2E/DX2 analytically  !
 ! A113  A(14,28,58)           112.4012         calculate D2E/DX2 analytically  !
 ! A114  A(56,28,57)           107.3369         calculate D2E/DX2 analytically  !
 ! A115  A(56,28,58)           107.3275         calculate D2E/DX2 analytically  !
 ! A116  A(57,28,58)           107.9411         calculate D2E/DX2 analytically  !
 ! A117  A(15,29,59)           109.9275         calculate D2E/DX2 analytically  !
 ! A118  A(15,29,60)           111.4936         calculate D2E/DX2 analytically  !
 ! A119  A(15,29,61)           110.9786         calculate D2E/DX2 analytically  !
 ! A120  A(59,29,60)           108.5597         calculate D2E/DX2 analytically  !
 ! A121  A(59,29,61)           107.389          calculate D2E/DX2 analytically  !
 ! A122  A(60,29,61)           108.3673         calculate D2E/DX2 analytically  !
 ! A123  A(15,30,62)           109.2749         calculate D2E/DX2 analytically  !
 ! A124  A(15,30,63)           112.294          calculate D2E/DX2 analytically  !
 ! A125  A(15,30,64)           112.4785         calculate D2E/DX2 analytically  !
 ! A126  A(62,30,63)           107.3745         calculate D2E/DX2 analytically  !
 ! A127  A(62,30,64)           107.2353         calculate D2E/DX2 analytically  !
 ! A128  A(63,30,64)           107.9361         calculate D2E/DX2 analytically  !
 ! A129  A(15,31,65)           110.564          calculate D2E/DX2 analytically  !
 ! A130  A(15,31,66)           111.3023         calculate D2E/DX2 analytically  !
 ! A131  A(15,31,67)           110.5571         calculate D2E/DX2 analytically  !
 ! A132  A(65,31,66)           108.0765         calculate D2E/DX2 analytically  !
 ! A133  A(65,31,67)           107.5077         calculate D2E/DX2 analytically  !
 ! A134  A(66,31,67)           108.7129         calculate D2E/DX2 analytically  !
 ! A135  A(20,32,68)           109.9228         calculate D2E/DX2 analytically  !
 ! A136  A(20,32,69)           111.953          calculate D2E/DX2 analytically  !
 ! A137  A(20,32,70)           111.9645         calculate D2E/DX2 analytically  !
 ! A138  A(68,32,69)           107.4682         calculate D2E/DX2 analytically  !
 ! A139  A(68,32,70)           107.453          calculate D2E/DX2 analytically  !
 ! A140  A(69,32,70)           107.8705         calculate D2E/DX2 analytically  !
 ! A141  A(20,33,71)           110.6348         calculate D2E/DX2 analytically  !
 ! A142  A(20,33,72)           111.1987         calculate D2E/DX2 analytically  !
 ! A143  A(20,33,73)           111.844          calculate D2E/DX2 analytically  !
 ! A144  A(71,33,72)           107.7862         calculate D2E/DX2 analytically  !
 ! A145  A(71,33,73)           107.4714         calculate D2E/DX2 analytically  !
 ! A146  A(72,33,73)           107.7233         calculate D2E/DX2 analytically  !
 ! A147  A(20,34,74)           111.7977         calculate D2E/DX2 analytically  !
 ! A148  A(20,34,75)           111.1966         calculate D2E/DX2 analytically  !
 ! A149  A(20,34,76)           110.6543         calculate D2E/DX2 analytically  !
 ! A150  A(74,34,75)           107.7117         calculate D2E/DX2 analytically  !
 ! A151  A(74,34,76)           107.4966         calculate D2E/DX2 analytically  !
 ! A152  A(75,34,76)           107.8037         calculate D2E/DX2 analytically  !
 ! A153  A(21,35,77)           110.7382         calculate D2E/DX2 analytically  !
 ! A154  A(21,35,78)           111.6646         calculate D2E/DX2 analytically  !
 ! A155  A(21,35,79)           111.2055         calculate D2E/DX2 analytically  !
 ! A156  A(77,35,78)           107.5543         calculate D2E/DX2 analytically  !
 ! A157  A(77,35,79)           107.7895         calculate D2E/DX2 analytically  !
 ! A158  A(78,35,79)           107.7117         calculate D2E/DX2 analytically  !
 ! A159  A(21,36,80)           111.2323         calculate D2E/DX2 analytically  !
 ! A160  A(21,36,81)           111.6881         calculate D2E/DX2 analytically  !
 ! A161  A(21,36,82)           110.7168         calculate D2E/DX2 analytically  !
 ! A162  A(80,36,81)           107.7362         calculate D2E/DX2 analytically  !
 ! A163  A(80,36,82)           107.7642         calculate D2E/DX2 analytically  !
 ! A164  A(81,36,82)           107.5238         calculate D2E/DX2 analytically  !
 ! A165  A(21,37,83)           109.7853         calculate D2E/DX2 analytically  !
 ! A166  A(21,37,84)           112.1003         calculate D2E/DX2 analytically  !
 ! A167  A(21,37,85)           112.0474         calculate D2E/DX2 analytically  !
 ! A168  A(83,37,84)           107.3923         calculate D2E/DX2 analytically  !
 ! A169  A(83,37,85)           107.4189         calculate D2E/DX2 analytically  !
 ! A170  A(84,37,85)           107.8768         calculate D2E/DX2 analytically  !
 ! A171  A(24,38,40)           111.941          calculate D2E/DX2 analytically  !
 ! A172  A(24,38,86)           107.9434         calculate D2E/DX2 analytically  !
 ! A173  A(24,38,87)           108.5871         calculate D2E/DX2 analytically  !
 ! A174  A(40,38,86)           110.2644         calculate D2E/DX2 analytically  !
 ! A175  A(40,38,87)           111.2941         calculate D2E/DX2 analytically  !
 ! A176  A(86,38,87)           106.6073         calculate D2E/DX2 analytically  !
 ! A177  A(25,39,41)           113.0589         calculate D2E/DX2 analytically  !
 ! A178  A(25,39,88)           106.4594         calculate D2E/DX2 analytically  !
 ! A179  A(25,39,89)           110.5779         calculate D2E/DX2 analytically  !
 ! A180  A(41,39,88)           108.9998         calculate D2E/DX2 analytically  !
 ! A181  A(41,39,89)           111.8292         calculate D2E/DX2 analytically  !
 ! A182  A(88,39,89)           105.4752         calculate D2E/DX2 analytically  !
 ! A183  A(38,40,41)           110.5476         calculate D2E/DX2 analytically  !
 ! A184  A(38,40,90)           109.7839         calculate D2E/DX2 analytically  !
 ! A185  A(38,40,91)           110.0492         calculate D2E/DX2 analytically  !
 ! A186  A(41,40,90)           110.7245         calculate D2E/DX2 analytically  !
 ! A187  A(41,40,91)           109.2125         calculate D2E/DX2 analytically  !
 ! A188  A(90,40,91)           106.4385         calculate D2E/DX2 analytically  !
 ! A189  A(39,41,40)           110.1959         calculate D2E/DX2 analytically  !
 ! A190  A(39,41,92)           109.7989         calculate D2E/DX2 analytically  !
 ! A191  A(39,41,93)           110.082          calculate D2E/DX2 analytically  !
 ! A192  A(40,41,92)           110.8756         calculate D2E/DX2 analytically  !
 ! A193  A(40,41,93)           109.35           calculate D2E/DX2 analytically  !
 ! A194  A(92,41,93)           106.4708         calculate D2E/DX2 analytically  !
 ! A195  A(38,86,95)           147.1401         calculate D2E/DX2 analytically  !
 ! A196  A(1,95,86)             76.3061         calculate D2E/DX2 analytically  !
 ! A197  L(2,1,5,3,-1)         180.6873         calculate D2E/DX2 analytically  !
 ! A198  L(3,1,4,2,-1)         180.4422         calculate D2E/DX2 analytically  !
 ! A199  L(94,1,95,2,-1)       179.0403         calculate D2E/DX2 analytically  !
 ! A200  L(2,1,5,3,-2)         176.1703         calculate D2E/DX2 analytically  !
 ! A201  L(3,1,4,2,-2)         177.9398         calculate D2E/DX2 analytically  !
 ! A202  L(94,1,95,2,-2)       178.1174         calculate D2E/DX2 analytically  !
 ! D1    D(3,1,2,8)           -179.636          calculate D2E/DX2 analytically  !
 ! D2    D(4,1,2,8)              2.4242         calculate D2E/DX2 analytically  !
 ! D3    D(94,1,2,8)           -87.4385         calculate D2E/DX2 analytically  !
 ! D4    D(95,1,2,8)            94.4441         calculate D2E/DX2 analytically  !
 ! D5    D(2,1,3,9)           -168.7636         calculate D2E/DX2 analytically  !
 ! D6    D(5,1,3,9)             15.066          calculate D2E/DX2 analytically  !
 ! D7    D(94,1,3,9)           102.2176         calculate D2E/DX2 analytically  !
 ! D8    D(95,1,3,9)           -78.627          calculate D2E/DX2 analytically  !
 ! D9    D(2,1,4,22)             0.3235         calculate D2E/DX2 analytically  !
 ! D10   D(2,1,4,24)           178.3691         calculate D2E/DX2 analytically  !
 ! D11   D(5,1,4,22)           176.4697         calculate D2E/DX2 analytically  !
 ! D12   D(5,1,4,24)            -5.4848         calculate D2E/DX2 analytically  !
 ! D13   D(94,1,4,22)           89.4668         calculate D2E/DX2 analytically  !
 ! D14   D(94,1,4,24)          -92.4877         calculate D2E/DX2 analytically  !
 ! D15   D(95,1,4,22)          -89.7041         calculate D2E/DX2 analytically  !
 ! D16   D(95,1,4,24)           88.3415         calculate D2E/DX2 analytically  !
 ! D17   D(3,1,5,23)            -7.2186         calculate D2E/DX2 analytically  !
 ! D18   D(3,1,5,25)           162.2029         calculate D2E/DX2 analytically  !
 ! D19   D(4,1,5,23)           170.6946         calculate D2E/DX2 analytically  !
 ! D20   D(4,1,5,25)           -19.8839         calculate D2E/DX2 analytically  !
 ! D21   D(94,1,5,23)          -99.1512         calculate D2E/DX2 analytically  !
 ! D22   D(94,1,5,25)           70.2703         calculate D2E/DX2 analytically  !
 ! D23   D(95,1,5,23)           78.9709         calculate D2E/DX2 analytically  !
 ! D24   D(95,1,5,25)         -111.6076         calculate D2E/DX2 analytically  !
 ! D25   D(2,1,95,86)         -132.5443         calculate D2E/DX2 analytically  !
 ! D26   D(3,1,95,86)          140.9219         calculate D2E/DX2 analytically  !
 ! D27   D(4,1,95,86)          -38.6383         calculate D2E/DX2 analytically  !
 ! D28   D(5,1,95,86)           47.033          calculate D2E/DX2 analytically  !
 ! D29   D(1,2,8,6)            175.6362         calculate D2E/DX2 analytically  !
 ! D30   D(1,2,8,10)            -4.3624         calculate D2E/DX2 analytically  !
 ! D31   D(1,3,9,7)            166.8648         calculate D2E/DX2 analytically  !
 ! D32   D(1,3,9,11)           -13.7863         calculate D2E/DX2 analytically  !
 ! D33   D(1,4,22,10)           -1.1565         calculate D2E/DX2 analytically  !
 ! D34   D(1,4,22,46)          179.3542         calculate D2E/DX2 analytically  !
 ! D35   D(24,4,22,10)        -179.101          calculate D2E/DX2 analytically  !
 ! D36   D(24,4,22,46)           1.4098         calculate D2E/DX2 analytically  !
 ! D37   D(1,4,24,25)           27.9815         calculate D2E/DX2 analytically  !
 ! D38   D(1,4,24,38)          -94.0862         calculate D2E/DX2 analytically  !
 ! D39   D(1,4,24,48)          145.3452         calculate D2E/DX2 analytically  !
 ! D40   D(22,4,24,25)        -153.8357         calculate D2E/DX2 analytically  !
 ! D41   D(22,4,24,38)          84.0967         calculate D2E/DX2 analytically  !
 ! D42   D(22,4,24,48)         -36.4719         calculate D2E/DX2 analytically  !
 ! D43   D(1,5,23,11)           -1.7855         calculate D2E/DX2 analytically  !
 ! D44   D(1,5,23,47)          177.3879         calculate D2E/DX2 analytically  !
 ! D45   D(25,5,23,11)        -170.1125         calculate D2E/DX2 analytically  !
 ! D46   D(25,5,23,47)           9.0609         calculate D2E/DX2 analytically  !
 ! D47   D(1,5,25,24)           39.1782         calculate D2E/DX2 analytically  !
 ! D48   D(1,5,25,39)          164.9533         calculate D2E/DX2 analytically  !
 ! D49   D(1,5,25,49)          -74.2635         calculate D2E/DX2 analytically  !
 ! D50   D(23,5,25,24)        -151.0009         calculate D2E/DX2 analytically  !
 ! D51   D(23,5,25,39)         -25.2257         calculate D2E/DX2 analytically  !
 ! D52   D(23,5,25,49)          95.5574         calculate D2E/DX2 analytically  !
 ! D53   D(14,6,8,2)            -3.2777         calculate D2E/DX2 analytically  !
 ! D54   D(14,6,8,10)          176.721          calculate D2E/DX2 analytically  !
 ! D55   D(16,6,8,2)           177.5577         calculate D2E/DX2 analytically  !
 ! D56   D(16,6,8,10)           -2.4436         calculate D2E/DX2 analytically  !
 ! D57   D(8,6,14,26)           60.112          calculate D2E/DX2 analytically  !
 ! D58   D(8,6,14,27)          -60.6768         calculate D2E/DX2 analytically  !
 ! D59   D(8,6,14,28)         -179.9031         calculate D2E/DX2 analytically  !
 ! D60   D(16,6,14,26)        -120.7499         calculate D2E/DX2 analytically  !
 ! D61   D(16,6,14,27)         118.4613         calculate D2E/DX2 analytically  !
 ! D62   D(16,6,14,28)          -0.7651         calculate D2E/DX2 analytically  !
 ! D63   D(8,6,16,12)            1.0554         calculate D2E/DX2 analytically  !
 ! D64   D(8,6,16,42)         -179.276          calculate D2E/DX2 analytically  !
 ! D65   D(14,6,16,12)        -178.0933         calculate D2E/DX2 analytically  !
 ! D66   D(14,6,16,42)           1.5753         calculate D2E/DX2 analytically  !
 ! D67   D(15,7,9,3)            -6.3288         calculate D2E/DX2 analytically  !
 ! D68   D(15,7,9,11)          174.2827         calculate D2E/DX2 analytically  !
 ! D69   D(17,7,9,3)           176.5553         calculate D2E/DX2 analytically  !
 ! D70   D(17,7,9,11)           -2.8333         calculate D2E/DX2 analytically  !
 ! D71   D(9,7,15,29)           58.8208         calculate D2E/DX2 analytically  !
 ! D72   D(9,7,15,30)          179.1601         calculate D2E/DX2 analytically  !
 ! D73   D(9,7,15,31)          -61.9881         calculate D2E/DX2 analytically  !
 ! D74   D(17,7,15,29)        -124.1372         calculate D2E/DX2 analytically  !
 ! D75   D(17,7,15,30)          -3.7979         calculate D2E/DX2 analytically  !
 ! D76   D(17,7,15,31)         115.0539         calculate D2E/DX2 analytically  !
 ! D77   D(9,7,17,13)            0.8125         calculate D2E/DX2 analytically  !
 ! D78   D(9,7,17,43)         -179.5921         calculate D2E/DX2 analytically  !
 ! D79   D(15,7,17,13)        -176.2599         calculate D2E/DX2 analytically  !
 ! D80   D(15,7,17,43)           3.3355         calculate D2E/DX2 analytically  !
 ! D81   D(2,8,10,18)         -177.8481         calculate D2E/DX2 analytically  !
 ! D82   D(2,8,10,22)            3.2958         calculate D2E/DX2 analytically  !
 ! D83   D(6,8,10,18)            2.1533         calculate D2E/DX2 analytically  !
 ! D84   D(6,8,10,22)         -176.7028         calculate D2E/DX2 analytically  !
 ! D85   D(3,9,11,19)         -176.2395         calculate D2E/DX2 analytically  !
 ! D86   D(3,9,11,23)            0.9645         calculate D2E/DX2 analytically  !
 ! D87   D(7,9,11,19)            3.1229         calculate D2E/DX2 analytically  !
 ! D88   D(7,9,11,23)         -179.6732         calculate D2E/DX2 analytically  !
 ! D89   D(8,10,18,12)          -0.3671         calculate D2E/DX2 analytically  !
 ! D90   D(8,10,18,44)         179.5677         calculate D2E/DX2 analytically  !
 ! D91   D(22,10,18,12)        178.5483         calculate D2E/DX2 analytically  !
 ! D92   D(22,10,18,44)         -1.5169         calculate D2E/DX2 analytically  !
 ! D93   D(8,10,22,4)           -0.4055         calculate D2E/DX2 analytically  !
 ! D94   D(8,10,22,46)         179.0905         calculate D2E/DX2 analytically  !
 ! D95   D(18,10,22,4)        -179.3023         calculate D2E/DX2 analytically  !
 ! D96   D(18,10,22,46)          0.1936         calculate D2E/DX2 analytically  !
 ! D97   D(9,11,19,13)          -1.3389         calculate D2E/DX2 analytically  !
 ! D98   D(9,11,19,45)         178.6772         calculate D2E/DX2 analytically  !
 ! D99   D(23,11,19,13)       -178.6961         calculate D2E/DX2 analytically  !
 ! D100  D(23,11,19,45)          1.32           calculate D2E/DX2 analytically  !
 ! D101  D(9,11,23,5)            7.4087         calculate D2E/DX2 analytically  !
 ! D102  D(9,11,23,47)        -171.7876         calculate D2E/DX2 analytically  !
 ! D103  D(19,11,23,5)        -175.2893         calculate D2E/DX2 analytically  !
 ! D104  D(19,11,23,47)          5.5143         calculate D2E/DX2 analytically  !
 ! D105  D(18,12,16,6)           0.7509         calculate D2E/DX2 analytically  !
 ! D106  D(18,12,16,42)       -178.9206         calculate D2E/DX2 analytically  !
 ! D107  D(20,12,16,6)        -179.7189         calculate D2E/DX2 analytically  !
 ! D108  D(20,12,16,42)          0.6096         calculate D2E/DX2 analytically  !
 ! D109  D(16,12,18,10)         -1.0943         calculate D2E/DX2 analytically  !
 ! D110  D(16,12,18,44)        178.9734         calculate D2E/DX2 analytically  !
 ! D111  D(20,12,18,10)        179.3982         calculate D2E/DX2 analytically  !
 ! D112  D(20,12,18,44)         -0.5341         calculate D2E/DX2 analytically  !
 ! D113  D(16,12,20,32)       -179.6691         calculate D2E/DX2 analytically  !
 ! D114  D(16,12,20,33)        -59.3508         calculate D2E/DX2 analytically  !
 ! D115  D(16,12,20,34)         60.0706         calculate D2E/DX2 analytically  !
 ! D116  D(18,12,20,32)         -0.1752         calculate D2E/DX2 analytically  !
 ! D117  D(18,12,20,33)        120.1431         calculate D2E/DX2 analytically  !
 ! D118  D(18,12,20,34)       -120.4355         calculate D2E/DX2 analytically  !
 ! D119  D(19,13,17,7)           1.0382         calculate D2E/DX2 analytically  !
 ! D120  D(19,13,17,43)       -178.5572         calculate D2E/DX2 analytically  !
 ! D121  D(21,13,17,7)        -179.5318         calculate D2E/DX2 analytically  !
 ! D122  D(21,13,17,43)          0.8728         calculate D2E/DX2 analytically  !
 ! D123  D(17,13,19,11)         -0.7662         calculate D2E/DX2 analytically  !
 ! D124  D(17,13,19,45)        179.2172         calculate D2E/DX2 analytically  !
 ! D125  D(21,13,19,11)        179.7882         calculate D2E/DX2 analytically  !
 ! D126  D(21,13,19,45)         -0.2283         calculate D2E/DX2 analytically  !
 ! D127  D(17,13,21,35)       -119.4526         calculate D2E/DX2 analytically  !
 ! D128  D(17,13,21,36)        121.2491         calculate D2E/DX2 analytically  !
 ! D129  D(17,13,21,37)          0.9441         calculate D2E/DX2 analytically  !
 ! D130  D(19,13,21,35)         59.9549         calculate D2E/DX2 analytically  !
 ! D131  D(19,13,21,36)        -59.3435         calculate D2E/DX2 analytically  !
 ! D132  D(19,13,21,37)       -179.6485         calculate D2E/DX2 analytically  !
 ! D133  D(6,14,26,50)         179.242          calculate D2E/DX2 analytically  !
 ! D134  D(6,14,26,51)         -60.271          calculate D2E/DX2 analytically  !
 ! D135  D(6,14,26,52)          60.4504         calculate D2E/DX2 analytically  !
 ! D136  D(27,14,26,50)        -59.9032         calculate D2E/DX2 analytically  !
 ! D137  D(27,14,26,51)         60.5839         calculate D2E/DX2 analytically  !
 ! D138  D(27,14,26,52)       -178.6947         calculate D2E/DX2 analytically  !
 ! D139  D(28,14,26,50)         56.5207         calculate D2E/DX2 analytically  !
 ! D140  D(28,14,26,51)        177.0077         calculate D2E/DX2 analytically  !
 ! D141  D(28,14,26,52)        -62.2709         calculate D2E/DX2 analytically  !
 ! D142  D(6,14,27,53)         -61.8383         calculate D2E/DX2 analytically  !
 ! D143  D(6,14,27,54)          58.9936         calculate D2E/DX2 analytically  !
 ! D144  D(6,14,27,55)         179.2754         calculate D2E/DX2 analytically  !
 ! D145  D(26,14,27,53)        176.703          calculate D2E/DX2 analytically  !
 ! D146  D(26,14,27,54)        -62.4651         calculate D2E/DX2 analytically  !
 ! D147  D(26,14,27,55)         57.8167         calculate D2E/DX2 analytically  !
 ! D148  D(28,14,27,53)         60.237          calculate D2E/DX2 analytically  !
 ! D149  D(28,14,27,54)       -178.9311         calculate D2E/DX2 analytically  !
 ! D150  D(28,14,27,55)        -58.6493         calculate D2E/DX2 analytically  !
 ! D151  D(6,14,28,56)         179.6443         calculate D2E/DX2 analytically  !
 ! D152  D(6,14,28,57)         -61.3551         calculate D2E/DX2 analytically  !
 ! D153  D(6,14,28,58)          60.5789         calculate D2E/DX2 analytically  !
 ! D154  D(26,14,28,56)        -58.5912         calculate D2E/DX2 analytically  !
 ! D155  D(26,14,28,57)         60.4094         calculate D2E/DX2 analytically  !
 ! D156  D(26,14,28,58)       -177.6567         calculate D2E/DX2 analytically  !
 ! D157  D(27,14,28,56)         59.1634         calculate D2E/DX2 analytically  !
 ! D158  D(27,14,28,57)        178.164          calculate D2E/DX2 analytically  !
 ! D159  D(27,14,28,58)        -59.9021         calculate D2E/DX2 analytically  !
 ! D160  D(7,15,29,59)         177.5182         calculate D2E/DX2 analytically  !
 ! D161  D(7,15,29,60)         -62.0423         calculate D2E/DX2 analytically  !
 ! D162  D(7,15,29,61)          58.8675         calculate D2E/DX2 analytically  !
 ! D163  D(30,15,29,59)         54.2748         calculate D2E/DX2 analytically  !
 ! D164  D(30,15,29,60)        174.7142         calculate D2E/DX2 analytically  !
 ! D165  D(30,15,29,61)        -64.3759         calculate D2E/DX2 analytically  !
 ! D166  D(31,15,29,59)        -62.2836         calculate D2E/DX2 analytically  !
 ! D167  D(31,15,29,60)         58.1559         calculate D2E/DX2 analytically  !
 ! D168  D(31,15,29,61)        179.0657         calculate D2E/DX2 analytically  !
 ! D169  D(7,15,30,62)         179.5335         calculate D2E/DX2 analytically  !
 ! D170  D(7,15,30,63)         -61.4352         calculate D2E/DX2 analytically  !
 ! D171  D(7,15,30,64)          60.5604         calculate D2E/DX2 analytically  !
 ! D172  D(29,15,30,62)        -57.6526         calculate D2E/DX2 analytically  !
 ! D173  D(29,15,30,63)         61.3787         calculate D2E/DX2 analytically  !
 ! D174  D(29,15,30,64)       -176.6257         calculate D2E/DX2 analytically  !
 ! D175  D(31,15,30,62)         60.1656         calculate D2E/DX2 analytically  !
 ! D176  D(31,15,30,63)        179.1968         calculate D2E/DX2 analytically  !
 ! D177  D(31,15,30,64)        -58.8075         calculate D2E/DX2 analytically  !
 ! D178  D(7,15,31,65)         -63.4428         calculate D2E/DX2 analytically  !
 ! D179  D(7,15,31,66)          56.6891         calculate D2E/DX2 analytically  !
 ! D180  D(7,15,31,67)         177.62           calculate D2E/DX2 analytically  !
 ! D181  D(29,15,31,65)        174.5411         calculate D2E/DX2 analytically  !
 ! D182  D(29,15,31,66)        -65.327          calculate D2E/DX2 analytically  !
 ! D183  D(29,15,31,67)         55.6039         calculate D2E/DX2 analytically  !
 ! D184  D(30,15,31,65)         58.2581         calculate D2E/DX2 analytically  !
 ! D185  D(30,15,31,66)        178.3899         calculate D2E/DX2 analytically  !
 ! D186  D(30,15,31,67)        -60.6792         calculate D2E/DX2 analytically  !
 ! D187  D(12,20,32,68)       -179.8372         calculate D2E/DX2 analytically  !
 ! D188  D(12,20,32,69)        -60.4745         calculate D2E/DX2 analytically  !
 ! D189  D(12,20,32,70)         60.8117         calculate D2E/DX2 analytically  !
 ! D190  D(33,20,32,68)         59.0769         calculate D2E/DX2 analytically  !
 ! D191  D(33,20,32,69)        178.4397         calculate D2E/DX2 analytically  !
 ! D192  D(33,20,32,70)        -60.2741         calculate D2E/DX2 analytically  !
 ! D193  D(34,20,32,68)        -58.8953         calculate D2E/DX2 analytically  !
 ! D194  D(34,20,32,69)         60.4674         calculate D2E/DX2 analytically  !
 ! D195  D(34,20,32,70)       -178.2464         calculate D2E/DX2 analytically  !
 ! D196  D(12,20,33,71)        179.4453         calculate D2E/DX2 analytically  !
 ! D197  D(12,20,33,72)        -60.8092         calculate D2E/DX2 analytically  !
 ! D198  D(12,20,33,73)         59.6713         calculate D2E/DX2 analytically  !
 ! D199  D(32,20,33,71)        -58.087          calculate D2E/DX2 analytically  !
 ! D200  D(32,20,33,72)         61.6585         calculate D2E/DX2 analytically  !
 ! D201  D(32,20,33,73)       -177.861          calculate D2E/DX2 analytically  !
 ! D202  D(34,20,33,71)         59.5897         calculate D2E/DX2 analytically  !
 ! D203  D(34,20,33,72)        179.3352         calculate D2E/DX2 analytically  !
 ! D204  D(34,20,33,73)        -60.1843         calculate D2E/DX2 analytically  !
 ! D205  D(12,20,34,74)        -59.5739         calculate D2E/DX2 analytically  !
 ! D206  D(12,20,34,75)         60.8587         calculate D2E/DX2 analytically  !
 ! D207  D(12,20,34,76)       -179.3623         calculate D2E/DX2 analytically  !
 ! D208  D(32,20,34,74)        178.0232         calculate D2E/DX2 analytically  !
 ! D209  D(32,20,34,75)        -61.5441         calculate D2E/DX2 analytically  !
 ! D210  D(32,20,34,76)         58.2349         calculate D2E/DX2 analytically  !
 ! D211  D(33,20,34,74)         60.3605         calculate D2E/DX2 analytically  !
 ! D212  D(33,20,34,75)       -179.2068         calculate D2E/DX2 analytically  !
 ! D213  D(33,20,34,76)        -59.4278         calculate D2E/DX2 analytically  !
 ! D214  D(13,21,35,77)       -179.4901         calculate D2E/DX2 analytically  !
 ! D215  D(13,21,35,78)        -59.6605         calculate D2E/DX2 analytically  !
 ! D216  D(13,21,35,79)         60.6872         calculate D2E/DX2 analytically  !
 ! D217  D(36,21,35,77)        -59.7134         calculate D2E/DX2 analytically  !
 ! D218  D(36,21,35,78)         60.1162         calculate D2E/DX2 analytically  !
 ! D219  D(36,21,35,79)       -179.5361         calculate D2E/DX2 analytically  !
 ! D220  D(37,21,35,77)         57.7214         calculate D2E/DX2 analytically  !
 ! D221  D(37,21,35,78)        177.551          calculate D2E/DX2 analytically  !
 ! D222  D(37,21,35,79)        -62.1013         calculate D2E/DX2 analytically  !
 ! D223  D(13,21,36,80)        -60.6282         calculate D2E/DX2 analytically  !
 ! D224  D(13,21,36,81)         59.7853         calculate D2E/DX2 analytically  !
 ! D225  D(13,21,36,82)        179.5775         calculate D2E/DX2 analytically  !
 ! D226  D(35,21,36,80)        179.5813         calculate D2E/DX2 analytically  !
 ! D227  D(35,21,36,81)        -60.0052         calculate D2E/DX2 analytically  !
 ! D228  D(35,21,36,82)         59.787          calculate D2E/DX2 analytically  !
 ! D229  D(37,21,36,80)         62.108          calculate D2E/DX2 analytically  !
 ! D230  D(37,21,36,81)       -177.4785         calculate D2E/DX2 analytically  !
 ! D231  D(37,21,36,82)        -57.6863         calculate D2E/DX2 analytically  !
 ! D232  D(13,21,37,83)        179.6036         calculate D2E/DX2 analytically  !
 ! D233  D(13,21,37,84)        -61.1262         calculate D2E/DX2 analytically  !
 ! D234  D(13,21,37,85)         60.3338         calculate D2E/DX2 analytically  !
 ! D235  D(35,21,37,83)        -59.2555         calculate D2E/DX2 analytically  !
 ! D236  D(35,21,37,84)         60.0147         calculate D2E/DX2 analytically  !
 ! D237  D(35,21,37,85)       -178.5253         calculate D2E/DX2 analytically  !
 ! D238  D(36,21,37,83)         58.5314         calculate D2E/DX2 analytically  !
 ! D239  D(36,21,37,84)        177.8017         calculate D2E/DX2 analytically  !
 ! D240  D(36,21,37,85)        -60.7383         calculate D2E/DX2 analytically  !
 ! D241  D(4,24,25,5)          -41.7602         calculate D2E/DX2 analytically  !
 ! D242  D(4,24,25,39)        -170.638          calculate D2E/DX2 analytically  !
 ! D243  D(4,24,25,49)          69.9336         calculate D2E/DX2 analytically  !
 ! D244  D(38,24,25,5)          79.2373         calculate D2E/DX2 analytically  !
 ! D245  D(38,24,25,39)        -49.6406         calculate D2E/DX2 analytically  !
 ! D246  D(38,24,25,49)       -169.0689         calculate D2E/DX2 analytically  !
 ! D247  D(48,24,25,5)        -159.6434         calculate D2E/DX2 analytically  !
 ! D248  D(48,24,25,39)         71.4788         calculate D2E/DX2 analytically  !
 ! D249  D(48,24,25,49)        -47.9496         calculate D2E/DX2 analytically  !
 ! D250  D(4,24,38,40)         171.6631         calculate D2E/DX2 analytically  !
 ! D251  D(4,24,38,86)          50.1337         calculate D2E/DX2 analytically  !
 ! D252  D(4,24,38,87)         -65.0711         calculate D2E/DX2 analytically  !
 ! D253  D(25,24,38,40)         52.9778         calculate D2E/DX2 analytically  !
 ! D254  D(25,24,38,86)        -68.5517         calculate D2E/DX2 analytically  !
 ! D255  D(25,24,38,87)        176.2436         calculate D2E/DX2 analytically  !
 ! D256  D(48,24,38,40)        -67.7277         calculate D2E/DX2 analytically  !
 ! D257  D(48,24,38,86)        170.7429         calculate D2E/DX2 analytically  !
 ! D258  D(48,24,38,87)         55.5381         calculate D2E/DX2 analytically  !
 ! D259  D(5,25,39,41)         -71.2113         calculate D2E/DX2 analytically  !
 ! D260  D(5,25,39,88)         169.1373         calculate D2E/DX2 analytically  !
 ! D261  D(5,25,39,89)          55.0516         calculate D2E/DX2 analytically  !
 ! D262  D(24,25,39,41)         51.7008         calculate D2E/DX2 analytically  !
 ! D263  D(24,25,39,88)        -67.9505         calculate D2E/DX2 analytically  !
 ! D264  D(24,25,39,89)        177.9637         calculate D2E/DX2 analytically  !
 ! D265  D(49,25,39,41)        170.1905         calculate D2E/DX2 analytically  !
 ! D266  D(49,25,39,88)         50.5391         calculate D2E/DX2 analytically  !
 ! D267  D(49,25,39,89)        -63.5466         calculate D2E/DX2 analytically  !
 ! D268  D(24,38,40,41)        -57.0711         calculate D2E/DX2 analytically  !
 ! D269  D(24,38,40,90)       -179.5136         calculate D2E/DX2 analytically  !
 ! D270  D(24,38,40,91)         63.6523         calculate D2E/DX2 analytically  !
 ! D271  D(86,38,40,41)         63.1127         calculate D2E/DX2 analytically  !
 ! D272  D(86,38,40,90)        -59.3298         calculate D2E/DX2 analytically  !
 ! D273  D(86,38,40,91)       -176.1639         calculate D2E/DX2 analytically  !
 ! D274  D(87,38,40,41)       -178.7949         calculate D2E/DX2 analytically  !
 ! D275  D(87,38,40,90)         58.7627         calculate D2E/DX2 analytically  !
 ! D276  D(87,38,40,91)        -58.0715         calculate D2E/DX2 analytically  !
 ! D277  D(24,38,86,95)        -42.9142         calculate D2E/DX2 analytically  !
 ! D278  D(40,38,86,95)       -165.4773         calculate D2E/DX2 analytically  !
 ! D279  D(87,38,86,95)         73.5865         calculate D2E/DX2 analytically  !
 ! D280  D(25,39,41,40)        -55.7195         calculate D2E/DX2 analytically  !
 ! D281  D(25,39,41,92)       -178.1288         calculate D2E/DX2 analytically  !
 ! D282  D(25,39,41,93)         64.9696         calculate D2E/DX2 analytically  !
 ! D283  D(88,39,41,40)         62.4614         calculate D2E/DX2 analytically  !
 ! D284  D(88,39,41,92)        -59.9479         calculate D2E/DX2 analytically  !
 ! D285  D(88,39,41,93)       -176.8495         calculate D2E/DX2 analytically  !
 ! D286  D(89,39,41,40)        178.6876         calculate D2E/DX2 analytically  !
 ! D287  D(89,39,41,92)         56.2782         calculate D2E/DX2 analytically  !
 ! D288  D(89,39,41,93)        -60.6234         calculate D2E/DX2 analytically  !
 ! D289  D(38,40,41,39)         57.6887         calculate D2E/DX2 analytically  !
 ! D290  D(38,40,41,92)        179.4616         calculate D2E/DX2 analytically  !
 ! D291  D(38,40,41,93)        -63.4386         calculate D2E/DX2 analytically  !
 ! D292  D(90,40,41,39)        179.5793         calculate D2E/DX2 analytically  !
 ! D293  D(90,40,41,92)        -58.6478         calculate D2E/DX2 analytically  !
 ! D294  D(90,40,41,93)         58.452          calculate D2E/DX2 analytically  !
 ! D295  D(91,40,41,39)        -63.532          calculate D2E/DX2 analytically  !
 ! D296  D(91,40,41,92)         58.2409         calculate D2E/DX2 analytically  !
 ! D297  D(91,40,41,93)        175.3408         calculate D2E/DX2 analytically  !
 ! D298  D(38,86,95,1)          44.151          calculate D2E/DX2 analytically  !
 --------------------------------------------------------------------------------
 Trust Radius=3.00D-01 FncErr=5.00D-06 GrdErr=5.00D-06 EigMax=2.50D+02 EigMin=1.00D-04
 Number of steps in this run=    570 maximum allowed number of steps=    570.
 GradGradGradGradGradGradGradGradGradGradGradGradGradGradGradGradGradGrad

 Symmetry turned off by external request.
 Stoichiometry    C36H53ClCoN2O2(1-)
 Framework group  C1[X(C36H53ClCoN2O2)]
 Deg. of freedom   279
 Full point group                 C1      NOp   1
                          Input orientation:                          
 ---------------------------------------------------------------------
 Center     Atomic      Atomic             Coordinates (Angstroms)
 Number     Number       Type             X           Y           Z
 ---------------------------------------------------------------------
      1         27           0        0.043350    0.312996   -1.474909
      2          8           0        1.287612   -1.147510   -1.507138
      3          8           0       -1.269955   -0.970274   -0.923707
      4          7           0        1.309894    1.574416   -2.081583
      5          7           0       -1.136009    1.787464   -1.329069
      6          6           0        3.330148   -2.310758   -1.680471
      7          6           0       -3.416383   -1.921278   -0.703000
      8          6           0        2.540909   -1.109929   -1.809050
      9          6           0       -2.545955   -0.786657   -0.861042
     10          6           0        3.209606    0.070918   -2.272228
     11          6           0       -3.161620    0.509039   -0.927559
     12          6           0        5.324990   -1.120220   -2.544496
     13          6           0       -5.392501   -0.433041   -0.582965
     14          6           0        2.691753   -3.585756   -1.119303
     15          6           0       -2.837899   -3.340140   -0.756670
     16          6           0        4.661307   -2.270394   -2.056126
     17          6           0       -4.780906   -1.703313   -0.564390
     18          6           0        4.577221    0.033560   -2.629632
     19          6           0       -4.555414    0.649258   -0.774303
     20          6           0        6.800026   -1.209900   -2.931926
     21          6           0       -6.900631   -0.229568   -0.416616
     22          6           0        2.547560    1.334392   -2.373125
     23          6           0       -2.403899    1.714253   -1.090554
     24          6           0        0.768780    2.929129   -2.258192
     25          6           0       -0.393900    3.065450   -1.271982
     26          6           0        1.512325   -4.030787   -1.997040
     27          6           0        2.196052   -3.326841    0.312813
     28          6           0        3.684039   -4.748192   -1.057903
     29          6           0       -1.766327   -3.553810    0.323976
     30          6           0       -3.910665   -4.410975   -0.548633
     31          6           0       -2.219751   -3.563424   -2.146030
     32          6           0        7.342226    0.129152   -3.427499
     33          6           0        7.628331   -1.646757   -1.715897
     34          6           0        6.975498   -2.246789   -4.049772
     35          6           0       -7.469173    0.451196   -1.668796
     36          6           0       -7.167103    0.668882    0.798516
     37          6           0       -7.643650   -1.548531   -0.208332
     38          6           0        0.325633    3.143769   -3.705613
     39          6           0       -1.191449    4.341297   -1.507659
     40          6           0       -0.423837    4.456054   -3.882054
     41          6           0       -1.631530    4.510695   -2.955593
     42          1           0        5.246285   -3.180697   -1.968024
     43          1           0       -5.419904   -2.568924   -0.439707
     44          1           0        5.021897    0.961550   -2.979738
     45          1           0       -4.963010    1.658562   -0.812183
     46          1           0        3.158674    2.173075   -2.724479
     47          1           0       -2.971097    2.642791   -0.986693
     48          1           0        1.539231    3.668179   -1.998708
     49          1           0        0.036064    3.095668   -0.261188
     50          1           0        1.070911   -4.950299   -1.595631
     51          1           0        0.739891   -3.263612   -2.039990
     52          1           0        1.844262   -4.244292   -3.019376
     53          1           0        3.030554   -3.064183    0.972233
     54          1           0        1.465625   -2.516900    0.342446
     55          1           0        1.725595   -4.229104    0.719936
     56          1           0        3.183496   -5.630018   -0.645972
     57          1           0        4.064822   -5.021601   -2.047337
     58          1           0        4.542628   -4.530295   -0.414506
     59          1           0       -1.402995   -4.587497    0.290628
     60          1           0       -0.918820   -2.883643    0.183789
     61          1           0       -2.179113   -3.383854    1.324893
     62          1           0       -3.448098   -5.401419   -0.604301
     63          1           0       -4.393802   -4.330262    0.430870
     64          1           0       -4.692242   -4.374584   -1.314006
     65          1           0       -2.990579   -3.510453   -2.923378
     66          1           0       -1.461851   -2.809935   -2.368644
     67          1           0       -1.757744   -4.555610   -2.206824
     68          1           0        8.397655    0.026984   -3.698061
     69          1           0        6.808394    0.483619   -4.314859
     70          1           0        7.273678    0.907537   -2.661014
     71          1           0        8.688675   -1.725666   -1.979270
     72          1           0        7.539925   -0.925532   -0.896874
     73          1           0        7.310686   -2.622444   -1.336242
     74          1           0        6.635227   -3.239480   -3.740189
     75          1           0        6.409967   -1.964635   -4.943764
     76          1           0        8.029815   -2.333846   -4.334020
     77          1           0       -8.547709    0.614256   -1.565876
     78          1           0       -7.003555    1.425325   -1.845565
     79          1           0       -7.307259   -0.162205   -2.561096
     80          1           0       -6.782785    0.216072    1.718339
     81          1           0       -6.695208    1.649596    0.687432
     82          1           0       -8.242219    0.833182    0.930707
     83          1           0       -8.714084   -1.355603   -0.087373
     84          1           0       -7.527482   -2.225614   -1.060407
     85          1           0       -7.302238   -2.075303    0.688435
     86          1           0       -0.313106    2.300389   -3.991769
     87          1           0        1.209772    3.100414   -4.351710
     88          1           0       -0.532241    5.174861   -1.234824
     89          1           0       -2.036994    4.399437   -0.816082
     90          1           0       -0.731409    4.569585   -4.926605
     91          1           0        0.241148    5.302643   -3.659817
     92          1           0       -2.169427    5.456974   -3.071332
     93          1           0       -2.337553    3.715469   -3.230700
     94          1           0        0.433214    0.586408   -0.098760
     95         17           0       -0.692977   -0.266799   -3.929139
 ---------------------------------------------------------------------
 Rotational constants (GHZ):           0.1224254           0.0474714           0.0368082
 General basis read from cards:  (5D, 7F)
 ======================================================================================================
                                       Pseudopotential Parameters
 ======================================================================================================
  Center     Atomic      Valence      Angular      Power
  Number     Number     Electrons     Momentum     of R      Exponent        Coefficient   SO-Coeffient
 ======================================================================================================
    1         27           17
                                      F and up 
                                                     2        1.0000000        0.00000000    0.00000000
                                      S - F
                                                     2       23.6600000      283.96056600    0.00000000
                                                     2       10.6100000       47.15684600    0.00000000
                                      P - F
                                                     2       25.0400000      182.21223600    0.00000000
                                                     2       10.4400000       35.23335200    0.00000000
                                      D - F
                                                     2       29.5400000      -26.47533300    0.00000000
                                                     2       10.1800000       -1.82578700    0.00000000
    2          8
                                   No pseudopotential on this center.
    3          8
                                   No pseudopotential on this center.
    4          7
                                   No pseudopotential on this center.
    5          7
                                   No pseudopotential on this center.
    6          6
                                   No pseudopotential on this center.
    7          6
                                   No pseudopotential on this center.
    8          6
                                   No pseudopotential on this center.
    9          6
                                   No pseudopotential on this center.
   10          6
                                   No pseudopotential on this center.
   11          6
                                   No pseudopotential on this center.
   12          6
                                   No pseudopotential on this center.
   13          6
                                   No pseudopotential on this center.
   14          6
                                   No pseudopotential on this center.
   15          6
                                   No pseudopotential on this center.
   16          6
                                   No pseudopotential on this center.
   17          6
                                   No pseudopotential on this center.
   18          6
                                   No pseudopotential on this center.
   19          6
                                   No pseudopotential on this center.
   20          6
                                   No pseudopotential on this center.
   21          6
                                   No pseudopotential on this center.
   22          6
                                   No pseudopotential on this center.
   23          6
                                   No pseudopotential on this center.
   24          6
                                   No pseudopotential on this center.
   25          6
                                   No pseudopotential on this center.
   26          6
                                   No pseudopotential on this center.
   27          6
                                   No pseudopotential on this center.
   28          6
                                   No pseudopotential on this center.
   29          6
                                   No pseudopotential on this center.
   30          6
                                   No pseudopotential on this center.
   31          6
                                   No pseudopotential on this center.
   32          6
                                   No pseudopotential on this center.
   33          6
                                   No pseudopotential on this center.
   34          6
                                   No pseudopotential on this center.
   35          6
                                   No pseudopotential on this center.
   36          6
                                   No pseudopotential on this center.
   37          6
                                   No pseudopotential on this center.
   38          6
                                   No pseudopotential on this center.
   39          6
                                   No pseudopotential on this center.
   40          6
                                   No pseudopotential on this center.
   41          6
                                   No pseudopotential on this center.
   42          1
                                   No pseudopotential on this center.
   43          1
                                   No pseudopotential on this center.
   44          1
                                   No pseudopotential on this center.
   45          1
                                   No pseudopotential on this center.
   46          1
                                   No pseudopotential on this center.
   47          1
                                   No pseudopotential on this center.
   48          1
                                   No pseudopotential on this center.
   49          1
                                   No pseudopotential on this center.
   50          1
                                   No pseudopotential on this center.
   51          1
                                   No pseudopotential on this center.
   52          1
                                   No pseudopotential on this center.
   53          1
                                   No pseudopotential on this center.
   54          1
                                   No pseudopotential on this center.
   55          1
                                   No pseudopotential on this center.
   56          1
                                   No pseudopotential on this center.
   57          1
                                   No pseudopotential on this center.
   58          1
                                   No pseudopotential on this center.
   59          1
                                   No pseudopotential on this center.
   60          1
                                   No pseudopotential on this center.
   61          1
                                   No pseudopotential on this center.
   62          1
                                   No pseudopotential on this center.
   63          1
                                   No pseudopotential on this center.
   64          1
                                   No pseudopotential on this center.
   65          1
                                   No pseudopotential on this center.
   66          1
                                   No pseudopotential on this center.
   67          1
                                   No pseudopotential on this center.
   68          1
                                   No pseudopotential on this center.
   69          1
                                   No pseudopotential on this center.
   70          1
                                   No pseudopotential on this center.
   71          1
                                   No pseudopotential on this center.
   72          1
                                   No pseudopotential on this center.
   73          1
                                   No pseudopotential on this center.
   74          1
                                   No pseudopotential on this center.
   75          1
                                   No pseudopotential on this center.
   76          1
                                   No pseudopotential on this center.
   77          1
                                   No pseudopotential on this center.
   78          1
                                   No pseudopotential on this center.
   79          1
                                   No pseudopotential on this center.
   80          1
                                   No pseudopotential on this center.
   81          1
                                   No pseudopotential on this center.
   82          1
                                   No pseudopotential on this center.
   83          1
                                   No pseudopotential on this center.
   84          1
                                   No pseudopotential on this center.
   85          1
                                   No pseudopotential on this center.
   86          1
                                   No pseudopotential on this center.
   87          1
                                   No pseudopotential on this center.
   88          1
                                   No pseudopotential on this center.
   89          1
                                   No pseudopotential on this center.
   90          1
                                   No pseudopotential on this center.
   91          1
                                   No pseudopotential on this center.
   92          1
                                   No pseudopotential on this center.
   93          1
                                   No pseudopotential on this center.
   94          1
                                   No pseudopotential on this center.
   95         17
                                   No pseudopotential on this center.
 ======================================================================================================
  1324 basis functions,  2045 primitive gaussians,  1371 cartesian basis functions
   167 alpha electrons      167 beta electrons
       nuclear repulsion energy      6021.7210595027 Hartrees.
 NAtoms=   95 NActive=   95 NUniq=   95 SFac= 1.00D+00 NAtFMM=   60 NAOKFM=T Big=T
 Integral buffers will be    131072 words long.
 Raffenetti 2 integral format.
 Two-electron integral symmetry is turned off.
 Standard density basis: Auto (5D, 7F)
  6120 Density fitting functions
 Force inversion solution in PCM.
 ------------------------------------------------------------------------------
 Polarizable Continuum Model (PCM)
 =================================
 Model                : PCM.
 Atomic radii         : SMD-Coulomb.
 Polarization charges : Total charges.
 Charge compensation  : None.
 Solution method      : Matrix inversion.
 Cavity type          : VdW (van der Waals Surface) (Alpha=1.000).
 Cavity algorithm     : GePol (No added spheres)
                        Default sphere list used, NSphG=   95.
                        Lebedev-Laikov grids with approx.  5.0 points / Ang**2.
                        Smoothing algorithm: York/Karplus (Gamma=1.0000).
                        Polarization charges: spherical gaussians, with
                                              point-specific exponents (IZeta= 3).
                        Self-potential: point-specific (ISelfS= 7).
                        Self-field    : sphere-specific E.n sum rule (ISelfD= 2).
 1st derivatives      : Analytical E(r).r(x)/FMM algorithm (CHGder, D1EAlg=3).
                        Cavity 1st derivative terms included.
 2nd derivatives      : Analytical E(r).r(xy)/FMM algorithm (CHGder, D2EAlg=3).
                        Cavity 2nd derivative terms included.
 Solvent              : n,n-DiMethylFormamide, Eps=  37.219000 Eps(inf)=   2.046330
 ------------------------------------------------------------------------------
 ------------------------------------------------------------------------------
 Atomic radii for non-electrostatic terms: SMD-CDS.
 ------------------------------------------------------------------------------
 Nuclear repulsion after PCM non-electrostatic terms =     6021.7138639257 Hartrees.
 One-electron integrals computed using PRISM.
   1 Symmetry operations used in ECPInt.
 ECPInt:  NShTT=  142311 NPrTT=  441310 LenC2=  111500 LenP2D=  230775.
[...]
 ,0.00037138,-0.00044205,-0.00075111,0.00040928,0.00009290,0.00006234,0
 .00035176,-0.00057691,0.00021208,-0.00058478,0.00019043,-0.00000967,0.
 00000207,-0.00000049,0.00004834,-0.00003932,-0.00000863,-0.00000499,-0
 .00000836,0.00000976,-0.00003241,-0.00001033,0.00000416,0.00000159,0.0
 0000063,0.00001007,0.00002278,-0.00000235,0.00000452,0.00000221,-0.000
 00356,-0.00000045,0.00000242,-0.00000074,-0.00000770,0.00000709,0.0000
 0252,0.00000315,-0.00000265,0.00000057,-0.00000048,0.00000209,-0.00000
 061,-0.00000176,-0.00000117,0.00000277,-0.00000154,0.00007158,0.000195
 00,0.00010141,0.00008213,0.00035164,0.00029379,0.00000516,-0.00001354,
 -0.00009708,0.00005713,-0.00012305,0.00003656,-0.00002512,-0.00000970,
 -0.00002606,0.00000292,-0.00000874,-0.00004082,-0.00001234,-0.00000367
 ,-0.00001022,0.00000476,-0.00000507,-0.00001852,0.00007075,-0.00013460
 ,-0.00052072,-0.00026641,-0.00005465,-0.00058318,-0.00002037,0.0000927
 3,-0.00007049,-0.00001763,0.00030984,0.00007695,0.00000183,-0.00000222
 ,-0.00000224,0.00000190,0.00000198,-0.00000326,-0.00000511,0.00000368,
 0.00000507,-0.00000037,0.00000408,-0.00000159,-0.00008482,0.00008435,0
 .00004100,-0.00001260,0.00001347,0.00001026,0.00000041,-0.00000154,0.0
 0000022,-0.00000515,0.00000734,0.00000377,0.00000082,-0.00000188,-0.00
 000184,0.00001213,0.00000701,0.00000071,0.00005604,0.00004578,0.000004
 15,-0.00000039,-0.00000242,0.00000400,-0.00000037,0.00000015,0.0000008
 2,-0.00000188,-0.00000055,-0.00000012,0.00000390,0.00000188,-0.0000016
 6,-0.00000126,-0.00000009,0.00000286,-0.00000542,0.00001469,-0.0000092
 3,-0.00000147,-0.00000609,0.00000053,0.00000118,0.00000081,0.00000045,
 -0.00000019,0.00000030,0.00000092,0.00000085,0.00000138,-0.00000106,0.
 00000221,-0.00000021,0.00000208,0.00000133,0.00000165,0.00000242,0.000
 00069,-0.00000005,-0.00000158,-0.00000156,0.00000068,-0.00000133,-0.00
 000123,-0.00000043,0.00000106,0.00000257,-0.00000282,-0.00000350,0.000
 00021,0.00000011,-0.00000045,-0.00000120,-0.00000104,-0.00000072,0.000
 00145,0.00000008,-0.00000030,-0.00000133,0.00000016,0.00000142,0.00000
 055,0.00000041,0.00000028,0.00000034,0.00000033,-0.00000031,-0.0000001
 9,-0.00000124,0.00000014,0.00000021,-0.00000013,0.00000069,0.00000063,
 -0.00000225,0.00000089,-0.00000716,0.00000799,-0.00001990,-0.00000698,
 0.00001059,-0.00003365,-0.00005007,0.00006915,-0.00001028,-0.00000816,
 0.00002322,-0.00000276,-0.00001964,0.00002866,-0.00001091,0.00000294,0
 .00000785,0.00000165,-0.00000213,-0.00000466,0.00001824,-0.00000080,0.
 00000022,-0.00001664,0.00448836,0.03242887,-0.02872148,-0.01709954,-0.
 12940619,-0.00001180,0.00055249,0.00180279,0.00089757,0.00133612,0.003
 06238,-0.00207416,-0.00136001,-0.00155627,0.00264716,-0.00202865,0.001
 16549,0.00016515,0.00021195,-0.00021677,-0.00031230,0.00020812,-0.0001
 3873,-0.00001456,-0.00052739,0.00012406,0.00064667,-0.00064512,0.00051
 598,-0.00007238,-0.00006221,-0.00016345,-0.00005600,0.00015205,-0.0001
 0590,0.00005721,-0.00011572,0.00002688,-0.00008789,-0.00009181,0.00002
 794,0.00003941,0.00008213,-0.00005206,-0.00005318,0.00010223,-0.000008
 10,0.00016590,-0.00024389,0.00004162,-0.00011767,-0.00032163,-0.000017
 74,-0.00018855,-0.00000426,0.00006436,0.00018311,-0.00001703,-0.000028
 45,-0.00009081,-0.00003257,0.00001852,0.00010484,-0.00001403,-0.000017
 73,0.00051986,0.00086065,-0.00001279,-0.00095214,0.00095458,0.00044476
 ,0.00023919,-0.00031735,0.00001179,-0.00046597,0.00013874,-0.00012832,
 -0.00004849,-0.00000848,0.00002199,0.00000084,-0.00008019,-0.00001219,
 -0.00004809,-0.00001756,0.00003349,0.00006317,-0.00005266,-0.00003622,
 0.00004686,-0.00001723,0.00000172,0.00004548,-0.00001413,0.00006917,0.
 00002822,-0.00003091,-0.00000569,0.00003946,-0.00000178,-0.00005445,0.
 00005581,0.00001665,0.00001562,-0.00004350,-0.00000447,0.00003698,-0.0
 0005615,-0.00000998,-0.00002877,-0.00003373,0.00003661,0.00000181,-0.0
 0004195,0.00009803,0.00007193,0.00033614,0.00009294,0.00023781,0.00006
 325,-0.00001639,-0.00002175,0.00003741,-0.00003801,0.00001368,0.000066
 68,-0.00000342,-0.00001643,-0.00005812,0.00000900,0.00000866,0.0000154
 4,0.00004398,-0.00003075,-0.00003561,0.00005581,-0.00000254,0.00018850
 ,0.00007791,0.00006139,-0.00026432,0.00000265,-0.00011207,0.00006020,0
 .00023469,-0.00003069,-0.00004117,0.00043127,0.00002424,-0.00000076,-0
 .00005438,-0.00000153,0.00004863,0.00005276,0.00000594,0.00001038,-0.0
 0000991,0.00000075,0.00003306,-0.00001943,0.00002138,0.00008467,-0.000
 19913,-0.00009989,-0.00000087,-0.00001975,0.00003297,0.00000095,-0.000
 03036,0.00000639,0.00000200,0.00000353,0.00000547,0.00001535,-0.000006
 71,0.00000194,-0.00001079,-0.00005582,0.00003186,-0.00010177,-0.000037
 82,-0.00005701,-0.00002846,-0.00002227,0.00003624,-0.00000181,-0.00003
 273,0.00000339,-0.00001964,-0.00000908,0.00001253,-0.00000318,-0.00000
 191,0.00000693,-0.00001612,-0.00001181,-0.00001052,-0.00001499,0.00008
 929,-0.00000960,-0.00001013,-0.00006434,-0.00001284,0.00001882,0.00001
 050,-0.00000652,0.00000106,0.00000110,0.00000583,0.00000004,0.00000586
 ,0.00000024,0.00003194,-0.00000532,0.00001945,0.00000160,0.00001027,0.
 00000908,-0.00000510,0.00000161,-0.00000453,-0.00000538,0.00000882,0.0
 0000242,-0.00000412,0.00000079,0.00000155,0.00002234,-0.00001680,-0.00
 002432,-0.00002897,0.00001200,-0.00001775,0.00000525,-0.00000618,-0.00
 000064,0.00000375,0.00000046,0.00000180,0.00000445,-0.00000721,0.00000
 950,0.00000416,-0.00000327,-0.00000394,-0.00002368,0.00002018,0.000025
 30,-0.00002285,-0.00000754,0.00000415,0.00000304,0.00000198,0.00000507
 ,0.00000037,-0.00000386,-0.00000269,0.00005932,-0.00021859,0.00012373,
 0.00001897,0.00005371,-0.00003780,-0.00006308,0.00014355,-0.00003510,-
 0.00003499,0.00001700,-0.00001199,-0.00002118,0.00002892,-0.00002206,-
 0.00000710,0.00007239,0.00000688,-0.00002681,0.00001602,-0.00000085,0.
 00000880,-0.00001582,-0.00000199,0.02987030,0.01995372,0.13115413,-0.0
 0839747,0.00004103,0.00378704,-0.00403488,0.00175436,-0.00370748,0.000
 75062,0.00038144,0.00219767,-0.00402258,-0.00188239,-0.00217503,0.0003
 2463,0.00072992,0.00091445,-0.00027118,0.00025067,0.00017229,0.0002953
 2,0.00005541,-0.00001599,0.00326925,-0.00035862,-0.00065272,0.00011692
 ,0.00026313,-0.00023475,-0.00067328,0.00011605,0.00013585,0.00008670,0
 .00041456,0.00007629,-0.00025479,0.00016657,0.00001362,-0.00000228,0.0
 0002955,-0.00006657,-0.00003300,-0.00013866,0.00006916,-0.00002962,-0.
 00012756,-0.00014156,-0.00000500,0.00004697,0.00004384,0.00003179,-0.0
 0001341,-0.00003049,0.00042846,-0.00005263,-0.00011232,0.00009956,0.00
 004731,0.00010317,0.00013552,0.00004687,-0.00004320,0.00002323,-0.0000
 0738,-0.00001702,0.00250474,-0.00064250,-0.00112270,0.00003622,-0.0010
 7477,0.00029652,-0.00010911,0.00084453,0.00016544,-0.00004532,-0.00020
 912,0.00025235,0.00010041,-0.00003094,-0.00011213,0.00004115,0.0000627
 4,-0.00000654,0.00003941,0.00000731,-0.00003224,-0.00003611,-0.0000222
 3,-0.00002161,-0.00000995,0.00002193,0.00007772,-0.00009208,-0.0006384
 1,0.00045333,-0.00003131,0.00004297,0.00000044,-0.00006084,-0.00001157
 ,0.00007114,-0.00008804,-0.00003360,-0.00002035,-0.00000991,0.00000122
 ,0.00000156,-0.00001091,-0.00000151,-0.00000415,-0.00000909,0.00000465
 ,-0.00000118,0.00166321,-0.00040716,0.00001486,0.00004388,0.00002406,-
 0.00004275,-0.00034475,-0.00019810,-0.00017760,-0.00004380,-0.00003818
 ,0.00003249,-0.00005121,0.00002131,-0.00000486,0.00000442,-0.00000148,
 -0.00001297,-0.00003574,-0.00004306,0.00002583,-0.00002007,0.00000414,
 -0.00000904,0.00003156,-0.00005272,0.00018253,0.00004565,0.00002145,-0
 .00011753,0.00000599,-0.00013619,0.00000728,0.00007762,0.00014368,-0.0
 0002610,-0.00001778,0.00009594,-0.00000239,-0.00013253,-0.00009702,0.0
 0002275,-0.00000310,-0.00002090,0.00007082,-0.00002120,0.00001033,-0.0
 0001479,-0.00002251,-0.00005022,0.00008626,0.00000170,0.00004450,-0.00
 004246,-0.00000091,0.00003418,-0.00001055,-0.00000772,-0.00000074,0.00
 000500,-0.00001499,0.00000670,0.00000052,0.00000708,-0.00001545,0.0000
 0602,-0.00000575,0.00000487,-0.00000398,0.00000815,0.00000030,0.000026
 32,0.00000178,-0.00000806,-0.00000146,-0.00003914,-0.00001942,0.000022
 38,0.00000031,0.00000297,-0.00000022,0.00005440,0.00019014,-0.00010992
 ,-0.00086482,0.00028766,-0.00031486,-0.00012776,-0.00021830,0.00011492
 ,-0.00002665,-0.00001299,0.00001030,0.00000181,-0.00000267,-0.00000190
 ,0.00000165,-0.00000383,0.00000081,-0.00004867,0.00001501,-0.00002420,
 0.00000344,-0.00000428,-0.00000298,0.00000692,-0.00000207,0.00000149,0
 .00000655,-0.00000412,-0.00000533,0.00000487,-0.00000256,0.00000092,-0
 .00003355,0.00002907,0.00003788,-0.00001079,0.00000220,0.00000170,0.00
 000134,-0.00000643,-0.00000015,0.00000571,0.00000324,0.00000456,0.0000
 0115,-0.00000211,0.00000458,0.00000180,-0.00000113,-0.00000272,-0.0000
 0763,0.00000389,0.00000519,-0.00000715,-0.00000114,0.00000121,0.000004
 77,0.00000482,-0.00000006,-0.00000013,-0.00000291,0.00000429,-0.000889
 37,-0.00094974,-0.00009054,0.00008877,0.00028043,0.00009844,0.00000517
 ,0.00000978,-0.00000840,0.00003013,-0.00003024,-0.00001189,0.00001530,
 -0.00002688,0.00003717,0.00006185,-0.00017685,0.00000044,0.00002849,-0
 .00001263,-0.00001415,-0.00004106,-0.00013663,-0.00004657,0.00120750,-
 0.00045361,-0.00262095,0.00933861,0.00064466,-0.00916887,0.00201168,0.
 00170040,0.00041349,0.00194135,-0.00060840,0.00110420,0.00206430,-0.00
 333969,-0.00121337,-0.00195789,0.00204113,-0.00164348,-0.00342528,0.00
 019181,-0.00031372,-0.00010167,-0.00017084,-0.00034778,-0.00002785,-0.
 00114066,0.00010227,0.00066915,0.00112085,-0.00015261,0.00041507,-0.00
 049026,0.00083026,-0.00019799,0.00065017,0.00052238,0.00000151,-0.0000
 5771,0.00047327,-0.00009028,0.00011330,0.00053275,-0.00004472,-0.00001
 414,-0.00009829,-0.00004224,-0.00014988,-0.00052532,-0.00027551,-0.000
 40126,-0.00017166,0.00008907,0.00042833,-0.00018739,-0.00008315,0.0004
 8558,-0.00009980,-0.00012184,-0.00057534,-0.00005208,0.00007828,0.0000
 3231,0.00002474,-0.00001644,-0.00003310,0.00003090,0.00000023,0.002375
 02,-0.00112575,-0.00084976,-0.00266433,-0.00077606,0.00007844,0.000230
 47,-0.00000776,0.00086086,0.00018711,0.00031357,0.00031051,-0.00016758
 ,0.00014193,0.00011823,0.00001580,0.00001229,-0.00000507,0.00005260,0.
 00003804,0.00003396,-0.00007023,0.00005473,-0.00001217,-0.00009523,0.0
 0013382,0.00031241,0.00086051,-0.00072107,0.00120809,-0.00001257,0.000
 00868,-0.00000182,-0.00002562,-0.00000251,0.00002474,-0.00003583,-0.00
 001102,-0.00000904,0.00000410,-0.00000216,-0.00001336,0.00001107,0.000
 00260,0.00000500,0.00001099,-0.00001500,-0.00000154,0.00258822,-0.0009
 8726,0.00066648,0.00000312,0.00011395,0.00003649,-0.00149427,-0.000461
 65,-0.00070484,-0.00015715,-0.00007323,0.00011249,-0.00001562,0.000002
 77,0.00001280,0.00002233,-0.00001117,-0.00000712,0.00000468,-0.0000193
 0,0.00000280,-0.00000732,-0.00001841,-0.00000356,0.00001634,-0.0000295
 7,0.00016456,0.00005338,-0.00003422,0.00015338,-0.00035061,-0.00003582
 ,-0.00047853,-0.00000609,0.00006071,-0.00020274,0.00007340,-0.00006203
 ,0.00000699,0.00005989,0.00015138,-0.00000259,0.00000625,0.00001615,-0
 .00007718,0.00000638,0.00000097,0.00001322,-0.00000981,-0.00002262,0.0
 0000784,0.00000369,0.00000622,-0.00001085,-0.00000354,0.00001527,-0.00
 000463,-0.00000419,0.00000019,-0.00000522,0.00002145,-0.00001131,0.000
 00674,-0.00000042,-0.00000222,-0.00000787,0.00000938,-0.00001273,-0.00
 003585,0.00001102,-0.00000927,0.00006922,0.00001534,0.00002196,-0.0000
 0619,-0.00012406,-0.00007952,0.00007353,-0.00000243,0.00000367,-0.0000
 1314,-0.00004681,0.00013787,-0.00013122,-0.00022590,0.00036899,-0.0004
 1860,-0.00027939,-0.00045268,0.00020775,-0.00000894,-0.00000372,0.0000
 0511,0.00000012,-0.00000311,0.00000100,0.00000174,0.00000051,0.0000012
 4,-0.00001793,0.00000194,-0.00000816,0.00000199,-0.00000155,0.00000008
 ,0.00000405,-0.00000270,0.00000326,0.00000152,-0.00000205,-0.00000371,
 0.00000010,-0.00000158,0.00000505,-0.00001181,0.00001042,0.00001586,0.
 00000692,-0.00000583,0.00000481,0.00000169,-0.00000087,0.00000212,0.00
 000080,0.00000167,0.00000341,-0.00000045,0.00000084,0.00000024,-0.0000
 0099,-0.00000020,-0.00000077,0.00000439,-0.00000376,-0.00000303,0.0000
 0665,0.00000297,-0.00000047,-0.00000038,0.00000122,0.00000206,-0.00000
 149,-0.00000122,-0.00000004,-0.00254308,-0.00341334,-0.00048922,-0.000
 52594,-0.00033206,0.00001822,-0.00001430,-0.00005716,0.00002061,0.0000
 3302,-0.00002018,-0.00005241,0.00009374,-0.00001951,0.00014501,0.00032
 323,-0.00088694,-0.00002185,0.00014180,-0.00006944,-0.00005637,0.00006
 666,0.00017717,-0.00001771,-0.00064921,0.00162112,-0.00216662,0.001815
 23,0.01632607,0.00357923,-0.00038435,0.00282226,-0.00672378,0.00319282
 ,-0.00214001,0.00683370,0.00308910,-0.00936611,-0.00436917,-0.00247217
 ,-0.00086386,0.00218622,-0.00333276,-0.00328815,-0.00071171,0.00038822
 ,0.00017340,0.00084847,0.00040217,0.00013639,0.00449722,-0.00003351,-0
 .00119483,-0.00589726,0.00053922,0.00053765,-0.00117508,0.00041308,0.0
 0016785,0.00086037,0.00014029,0.00035818,-0.00045640,0.00028281,0.0000
 6456,0.00052519,0.00018211,-0.00004228,-0.00002446,-0.00028831,0.00009
 387,0.00008202,-0.00017526,0.00011549,-0.00002752,0.00004559,0.0000268
 0,-0.00013695,0.00022453,-0.00004427,0.00070837,-0.00006104,-0.0001369
 7,-0.00067538,0.00002502,0.00007189,0.00022747,0.00008241,-0.00009484,
 -0.00028938,-0.00001113,0.00002660,0.00263158,-0.00185981,-0.00020759,
 -0.00250173,-0.00071268,0.00025447,-0.00017417,0.00123796,0.00005227,0
 .00101001,0.00079127,-0.00004430,0.00005398,0.00009777,-0.00009637,0.0
 0006898,0.00006399,-0.00000647,0.00008284,0.00000483,-0.00003875,-0.00
 003249,0.00011441,0.00007484,-0.00006848,-0.00000299,-0.00009091,-0.00
 070590,0.00035710,-0.00025871,-0.00005905,0.00007823,-0.00000875,-0.00
 011531,-0.00002226,0.00012638,-0.00015839,-0.00005957,-0.00003995,0.00
 013261,0.00002186,-0.00011310,0.00014908,0.00003941,0.00006769,0.00006
 709,-0.00009729,0.00000169,-0.00016095,-0.00009571,0.00080209,-0.00013
 570,-0.00002035,-0.00004923,0.00012234,0.00005033,0.00018509,-0.000025
 62,-0.00006163,-0.00009444,-0.00009447,0.00003731,-0.00000165,0.000070
 02,0.00003300,-0.00003197,-0.00005539,-0.00007858,0.00003598,0.0000865
 9,-0.00011659,-0.00001013,-0.00014037,-0.00010970,0.00007562,0.0001423
 2,-0.00012874,0.00004692,-0.00003844,-0.00017545,0.00018072,-0.0002225
 1,0.00008440,-0.00015921,0.00001016,0.00010673,-0.00000255,-0.00008291
 ,-0.00023290,-0.00004064,-0.00003270,0.00003614,0.00000881,-0.00003200
 ,0.00001798,-0.00001715,-0.00001693,-0.00009533,0.00015040,0.00000667,
 0.00006705,-0.00006441,-0.00000329,0.00005454,-0.00001505,-0.00002219,
 0.00000758,0.00001161,-0.00001820,0.00000663,0.00000324,-0.00001011,0.
 00011523,-0.00004747,0.00008290,-0.00017359,0.00010964,0.00002059,0.00
 001270,-0.00004998,0.00000351,0.00006352,-0.00000280,0.00005792,0.0000
 3153,-0.00002711,0.00002653,-0.00000003,0.00000253,0.00008115,0.000030
 50,0.00002521,0.00001037,-0.00035468,-0.00024820,0.00010923,0.00028985
 ,-0.00002995,-0.00004190,-0.00002461,0.00001826,0.00000418,-0.00000919
 ,0.00000141,0.00000524,-0.00000389,0.00000528,-0.00008422,0.00002481,-
 0.00004592,0.00001008,-0.00000548,-0.00000254,0.00001544,-0.00000572,0
 .00000377,0.00000878,-0.00000554,-0.00000996,0.00000951,-0.00000722,0.
 00001142,-0.00005259,0.00005422,0.00006481,0.00007633,-0.00004416,0.00
 005928,-0.00001023,-0.00000321,-0.00000591,-0.00000481,0.00001391,0.00
 001127,-0.00000744,0.00000527,0.00000069,-0.00001320,0.00000314,0.0000
 0363,0.00006281,-0.00005276,-0.00006227,0.00005309,0.00002205,-0.00000
 890,-0.00000650,0.00000994,-0.00000064,-0.00000499,0.00000655,0.000004
 35,-0.00009675,-0.00007040,0.00001504,-0.00002197,-0.00015402,-0.00003
 364,0.00002583,-0.00012101,0.00004542,0.00002728,-0.00000641,0.0000333
 1,0.00001204,-0.00007681,0.00003104,-0.00002006,0.00006637,-0.00001622
 ,0.00002515,-0.00002941,0.00005956,0.00001901,0.00001661,-0.00003265,-
 0.00255099,-0.00152871,-0.00687436,0.00258054,0.00022285,0.01888248\\0
 .00000127,0.00000921,0.00000173,0.00000255,-0.00000458,0.00000288,-0.0
 0000198,-0.00000112,-0.00000731,0.00000799,0.00000242,0.00000981,-0.00
 000226,0.00000389,0.00000228,0.00000101,0.00000066,-0.00000067,0.00000
 024,-0.00000227,0.00000227,0.00000169,0.00000014,0.00000099,0.00000383
 ,0.00000157,0.00000031,0.00000100,0.00000048,-0.00000138,-0.00000072,-
 0.00000118,0.00000040,0.00000020,-0.00000031,-0.00000065,-0.00000088,0
 .00000064,0.00000132,0.00000035,0.00000176,-0.00000032,0.00000034,-0.0
 0000028,0.00000134,0.00000072,0.00000243,-0.00000165,0.00000118,-0.000
 00257,0.00000096,-0.00000213,0.00000115,-0.00000114,-0.00000121,-0.000
 00181,0.00000075,-0.00000019,0.00000091,-0.00000102,0.00000044,-0.0000
 0112,0.00000224,-0.00000192,0.00000236,-0.00000156,0.00000022,-0.00000
 101,0.00000211,0.00000002,-0.00000479,-0.00000141,0.00000256,0.0000006
 8,0.00000271,0.00000029,-0.00000092,0.00000145,0.00000176,0.00000102,0
 .00000033,0.00000097,0.00000049,-0.00000044,0.00000216,0.00000002,0.00
 000053,0.00000109,-0.00000078,0.00000211,0.00000073,-0.00000232,0.0000
 0081,-0.00000069,0.00000098,-0.00000267,0.00000033,0.00000280,-0.00000
 180,-0.00000038,0.00000160,-0.00000175,-0.00000079,-0.00000104,0.00000
 259,-0.00000021,-0.00000069,0.00000087,0.00000126,-0.00000154,0.000002
 11,0.00000195,0.00000259,-0.00000862,-0.00000364,-0.00000001,-0.000001
 83,-0.00000467,-0.00000034,-0.00000230,-0.00000149,-0.00000027,-0.0000
 0163,0.00000048,0.00000103,-0.00000053,0.00000130,-0.00000071,0.000001
 75,-0.00000058,0.00000109,-0.00000198,-0.00000038,-0.00000102,0.000000
 92,-0.00000136,0.00000024,-0.00000150,-0.00000145,-0.00000101,-0.00000
 094,-0.00000044,-0.00000108,-0.00000201,-0.00000101,0.00000164,-0.0000
 0130,0.00000113,0.00000041,0.00000062,-0.00000037,0.00000057,0.0000012
 4,0.00000032,0.00000037,0.00000011,0.00000116,0.00000153,-0.00000025,0
 .00000161,0.00000089,-0.00000011,0.00000178,0.00000116,0.00000063,0.00
 000150,0.00000121,0.00000040,0.00000089,0.00000116,0.00000039,0.000001
 60,0.00000175,0.00000001,0.00000140,-0.00000026,0.00000116,-0.00000007
 ,0.00000078,0.00000101,0.00000172,0.00000011,0.00000136,0.00000152,-0.
 00000061,0.00000231,0.00000162,-0.00000043,0.00000221,0.00000120,-0.00
 000104,0.00000234,0.00000053,-0.00000104,0.00000146,-0.00000011,-0.000
 00125,0.00000094,0.00000074,-0.00000063,0.00000147,-0.00000076,0.00000
 165,-0.00000245,-0.00000099,0.00000107,-0.00000216,-0.00000072,0.00000
 194,-0.00000204,0.00000021,0.00000211,-0.00000193,0.00000036,0.0000018
 2,-0.00000227,0.00000037,0.00000182,-0.00000158,0.00000001,0.00000082,
 -0.00000097,-0.00000042,0.00000068,-0.00000126,-0.00000024,0.00000127,
 -0.00000174,-0.00000009,-0.00000228,0.00000174,-0.00000066,-0.00000235
 ,0.00000133,-0.00000030,-0.00000232,0.00000137,0.00000087,-0.00000092,
 0.00000175,0.00000013,-0.00000146,0.00000117,0.00000045,-0.00000148,0.
 00000166,0.00000022,-0.00000178,0.00000238,0.00000039,-0.00000185,0.00
 000223,0.00000071,-0.00000124,0.00000215,-0.00000496,0.00000047,-0.000
 00074,-0.00000182,0.00000088,-0.00000059,-0.00000099,-0.00000086,-0.00
 000193,-0.00000068,0.00000010,-0.00000103,-0.00000269,-0.00000120,-0.0
 0000085,-0.00000179,-0.00000154,-0.00000234,-0.00000222,-0.00000075,-0
 .00000129,-0.00000102,-0.00000060,0.00000004,-0.00000014,0.00000138,0.
 00000499,-0.00001094,-0.00000912,-0.00001212\\\@
 The archive entry for this job was punched.


 SEEN ON A WALL AT THE UNIVERSITY OF ILLINOIS AT CHICAGO CIRCLE:

 TO DO IS TO BE  -- SOCRATES
 TO BE IS TO DO  -- SARTRE
 OO BE DO BE DO  -- SINATRA
 Job cpu time:       5 days 14 hours 54 minutes 41.5 seconds.
 Elapsed time:       0 days  1 hours 25 minutes 18.2 seconds.
 File lengths (MBytes):  RWF=  12944 Int=      0 D2E=      0 Chk=    443 Scr=      1
 Normal termination of Gaussian 16 at Thu Dec 11 01:36:39 2025.
992950.56user 3095.40system 2:55:17elapsed 9470%CPU (0avgtext+0avgdata 62969232maxresident)k
129000inputs+4416064outputs (7273major+425507210minor)pagefaults 0swaps
