 Entering Gaussian System, Link 0=g16
 Initial command:
 /common/software/install/migrated/gaussian/g16.c01.avx2/g16/l1.exe "/tmp/quach062/25756680/Gau-15323.inp" -scrdir="/tmp/quach062/25756680/"
 Entering Link 1 = /common/software/install/migrated/gaussian/g16.c01.avx2/g16/l1.exe PID=     15324.
  
 Copyright (c) 1988-2019, Gaussian, Inc.  All Rights Reserved.
  
 This is part of the Gaussian(R) 16 program.  It is based on
 the Gaussian(R) 09 system (copyright 2009, Gaussian, Inc.),
 the Gaussian(R) 03 system (copyright 2003, Gaussian, Inc.),
 the Gaussian(R) 98 system (copyright 1998, Gaussian, Inc.),
 the Gaussian(R) 94 system (copyright 1995, Gaussian, Inc.),
 the Gaussian 92(TM) system (copyright 1992, Gaussian, Inc.),
 the Gaussian 90(TM) system (copyright 1990, Gaussian, Inc.),
 the Gaussian 88(TM) system (copyright 1988, Gaussian, Inc.),
 the Gaussian 86(TM) system (copyright 1986, Carnegie Mellon
 University), and the Gaussian 82(TM) system (copyright 1983,
 Carnegie Mellon University). Gaussian is a federally registered
 trademark of Gaussian, Inc.
  
 This software contains proprietary and confidential information,
 including trade secrets, belonging to Gaussian, Inc.
  
 This software is provided under written license and may be
 used, copied, transmitted, or stored only in accord with that
 written license.
  
 The following legend is applicable only to US Government
 contracts under FAR:
  
                    RESTRICTED RIGHTS LEGEND
  
 Use, reproduction and disclosure by the US Government is
 subject to restrictions as set forth in subparagraphs (a)
 and (c) of the Commercial Computer Software - Restricted
 Rights clause in FAR 52.227-19.
  
 Gaussian, Inc.
 340 Quinnipiac St., Bldg. 40, Wallingford CT 06492
  
  
 ---------------------------------------------------------------
 Warning -- This program may not be used in any manner that
 competes with the business of Gaussian, Inc. or will provide
 assistance to any competitor of Gaussian, Inc.  The licensee
 of this program is prohibited from giving any competitor of
 Gaussian, Inc. access to this program.  By using this program,
 the user acknowledges that Gaussian, Inc. is engaged in the
 business of creating and licensing software in the field of
 computational chemistry and represents and warrants to the
 licensee that it is not a competitor of Gaussian, Inc. and that
 it will not use this program in any manner prohibited above.
 ---------------------------------------------------------------
  

 Cite this work as:
 Gaussian 16, Revision C.01,
 M. J. Frisch, G. W. Trucks, H. B. Schlegel, G. E. Scuseria, 
 M. A. Robb, J. R. Cheeseman, G. Scalmani, V. Barone, 
 G. A. Petersson, H. Nakatsuji, X. Li, M. Caricato, A. V. Marenich, 
 J. Bloino, B. G. Janesko, R. Gomperts, B. Mennucci, H. P. Hratchian, 
 J. V. Ortiz, A. F. Izmaylov, J. L. Sonnenberg, D. Williams-Young, 
 F. Ding, F. Lipparini, F. Egidi, J. Goings, B. Peng, A. Petrone, 
 T. Henderson, D. Ranasinghe, V. G. Zakrzewski, J. Gao, N. Rega, 
 G. Zheng, W. Liang, M. Hada, M. Ehara, K. Toyota, R. Fukuda, 
 J. Hasegawa, M. Ishida, T. Nakajima, Y. Honda, O. Kitao, H. Nakai, 
 T. Vreven, K. Throssell, J. A. Montgomery, Jr., J. E. Peralta, 
 F. Ogliaro, M. J. Bearpark, J. J. Heyd, E. N. Brothers, K. N. Kudin, 
 V. N. Staroverov, T. A. Keith, R. Kobayashi, J. Normand, 
 K. Raghavachari, A. P. Rendell, J. C. Burant, S. S. Iyengar, 
 J. Tomasi, M. Cossi, J. M. Millam, M. Klene, C. Adamo, R. Cammi, 
 J. W. Ochterski, R. L. Martin, K. Morokuma, O. Farkas, 
 J. B. Foresman, and D. J. Fox, Gaussian, Inc., Wallingford CT, 2019.
 
 ******************************************
 Gaussian 16:  ES64L-G16RevC.01  3-Jul-2019
                 1-Nov-2024 
 ******************************************
 %chk=CoIR_S_prodCl_CA.chk
 %lindaworkers=in-cn0088
 %nprocshared=128
 Will use up to  128 processors via shared memory.
 %mem=59800MB
 SetLPE:  input flags=" -workerwait 900 -opt "Tsnet.Node.lindarsharg: ssh " "
 SetLPE:    new flags=" -workerwait 900 -opt "Tsnet.Node.lindarsharg: ssh " -opt 'Tsnet.Node.lindarsharg: ssh'  -nodelist 'in-cn0088' -env GAUSS_MDEF=7838105600 -env GAUSS_EXEDIR="/common/software/install/migrated/gaussian/g16.c01.avx2/g16/bsd:/common/software/install/migrated/gaussian/g16.c01.avx2/g16/local:/common/software/install/migrated/gaussian/g16.c01.avx2/g16/extras:/common/software/install/migrated/gaussian/g16.c01.avx2/g16""
 Will use up to    1 processors via Linda.
 ----------------------------------------------------------------------
 # opt=calcall # freq # pop=hirshfeld # m06l/genecp/auto # nosymm integ
 ral=grid=ultrafine # scf=(tight,intrep,xqc) # SCRF=(SMD,Solvent=n,n-Di
 MethylFormamide)
 ----------------------------------------------------------------------
 1/10=4,18=20,19=15,26=6,38=1/1,3;
 2/9=110,12=2,15=1,17=6,18=5,40=1/2;
 3/5=7,11=2,16=1,17=8,25=1,30=1,70=32201,71=2,72=148,74=-53,75=-5,82=28,140=1/1,2,3;
 4//1;
 5/5=2,8=3,13=1,17=20,32=2,38=5,53=148/2,8;
 8/6=4,10=90,11=11/1;
 11/6=1,8=1,9=11,15=111,16=1,31=1/1,2,10;
 10/6=1,31=1/2;
 6/7=2,8=2,9=2,10=2,18=1,28=1,79=1/1;
 7/10=1,25=1,30=1/1,2,3,16;
 1/10=4,18=20,19=15,26=6/3(3);
 2/9=110,15=1/2;
 7/8=1,9=1,25=1,30=1,44=-1/16;
 99//99;
 2/9=110,15=1/2;
 3/5=7,6=1,11=2,16=1,17=8,25=1,30=1,70=32205,71=2,72=148,74=-53,75=-5,82=7,140=1/1,2,3;
 4/5=5,16=3,69=1/1;
 5/5=2,8=3,13=1,17=20,32=2,38=5,53=148/2,8;
 8/6=4,10=90,11=11/1;
 11/6=1,8=1,9=11,15=111,16=1,31=1/1,2,10;
 10/6=1,31=1/2;
 7/10=1,25=1,30=1/1,2,3,16;
 1/10=4,18=20,19=15,26=6/3(-8);
 2/9=110,15=1/2;
 6/7=2,8=2,9=2,10=2,18=1,19=2,28=1,79=1/1;
 7/8=1,9=1,25=1,30=1,44=-1/16;
 99//99;
 -------------
 Input: Ts.out
 -------------
 Symbolic Z-matrix:
 Charge = -1 Multiplicity = 1
 Co                    0.05382   0.35715  -1.40424 
 O                     1.27938  -1.09928  -1.61072 
 O                    -1.31506  -0.95804  -1.3298 
 N                     1.32616   1.61235  -2.01678 
 N                    -1.15552   1.8014   -1.39953 
 C                     3.32985  -2.27127  -1.74771 
 C                    -3.43881  -1.92541  -0.97172 
 C                     2.55239  -1.06464  -1.85366 
 C                    -2.58946  -0.78492  -1.15284 
 C                     3.23372   0.12946  -2.25474 
 C                    -3.19591   0.5121   -1.12323 
 C                     5.34922  -1.05412  -2.51737 
 C                    -5.39621  -0.44051  -0.66257 
 C                     2.68622  -3.56398  -1.23522 
 C                    -2.8533   -3.34056  -1.04655 
 C                     4.67173  -2.21777  -2.08427 
 C                    -4.78987  -1.71143  -0.72618 
 C                     4.60769   0.10406  -2.58664 
 C                    -4.57577   0.64935  -0.8821 
 C                     6.83298  -1.13664  -2.87051 
 C                    -6.87822  -0.23849  -0.339 
 C                     2.5533    1.37755  -2.37099 
 C                    -2.442     1.71894  -1.26948 
 C                     0.73608   2.91899  -2.34604 
 C                    -0.45335   3.10299  -1.40877 
 C                     1.50758  -3.98367  -2.12616 
 C                     2.18877  -3.34507   0.20154 
 C                     3.67828  -4.72816  -1.20721 
 C                    -1.76496  -3.54016   0.02159 
 C                    -3.91626  -4.41629  -0.81521 
 C                    -2.2619   -3.57465  -2.44543 
 C                     7.39163   0.21602  -3.30676 
 C                     7.62747  -1.61836  -1.64898 
 C                     7.03084  -2.1365   -4.01793 
 C                    -7.55178   0.55414  -1.46653 
 C                    -7.00266   0.55438   0.96992 
 C                    -7.62191  -1.56256  -0.17157 
 C                     0.30157   2.94548  -3.81219 
 C                    -1.27616   4.33161  -1.77167 
 C                    -0.47864   4.21024  -4.14338 
 C                    -1.69497   4.35186  -3.23671 
 H                     5.25438  -3.13017  -2.00873 
 H                    -5.41798  -2.5792   -0.56733 
 H                     5.06008   1.04088  -2.90027 
 H                    -4.98029   1.65955  -0.8454 
 H                     3.12554   2.20578  -2.80239 
 H                    -3.0262    2.64154  -1.24382 
 H                     1.47034   3.71515  -2.16536 
 H                    -0.059     3.22254  -0.39097 
 H                     1.08485  -4.92808  -1.76528 
 H                     0.72113  -3.22984  -2.12485 
 H                     1.83348  -4.14323  -3.16019 
 H                     3.01622  -3.0786    0.86852 
 H                     1.4437   -2.54991   0.25075 
 H                     1.73177  -4.2613    0.59238 
 H                     3.17294  -5.62335  -0.83225 
 H                     4.06846  -4.96532  -2.20241 
 H                     4.53012  -4.53495  -0.54754 
 H                    -1.35286  -4.5535   -0.04833 
 H                    -0.94558  -2.82923  -0.0933 
 H                    -2.18304  -3.42699   1.02835 
 H                    -3.45148  -5.4044   -0.88762 
 H                    -4.37268  -4.34232   0.17701 
 H                    -4.71764  -4.37731  -1.55992 
 H                    -3.04062  -3.4994   -3.21232 
 H                    -1.48139  -2.84941  -2.67729 
 H                    -1.82823  -4.57867  -2.51252 
 H                     8.45337   0.11843  -3.55272 
 H                     6.88265   0.60172  -4.1957 
 H                     7.3053    0.96856  -2.51672 
 H                     8.69382  -1.69097  -1.8882 
 H                     7.51949  -0.92581  -0.80801 
 H                     7.29817  -2.60577  -1.31219 
 H                     6.67993  -3.1375   -3.7499 
 H                     6.48838  -1.822    -4.91542 
 H                     8.09141  -2.21812  -4.27902 
 H                    -8.61127   0.71822  -1.24241 
 H                    -7.08918   1.53551  -1.60598 
 H                    -7.49085   0.01783  -2.41906 
 H                    -6.53847   0.01699   1.80352 
 H                    -6.51959   1.53356   0.89593 
 H                    -8.05537   0.72132   1.22319 
 H                    -8.67609  -1.36912   0.04907 
 H                    -7.58319  -2.17302  -1.07937 
 H                    -7.21959  -2.15936   0.65285 
 H                    -0.32409   2.06176  -4.00134 
 H                     1.18687   2.8447   -4.44865 
 H                    -0.64113   5.20221  -1.56652 
 H                    -2.1352    4.43136  -1.10099 
 H                    -0.78034   4.19687  -5.19532 
 H                     0.17331   5.08543  -4.0175 
 H                    -2.23366   5.27918  -3.45486 
 H                    -2.39635   3.53201  -3.4397 
 Cl                    0.67658  -2.51729   3.93215 
 C                     0.38341   0.32501   0.60597 
 C                    -0.76931   0.82166   1.38694 
 C                    -1.82191  -0.05216   1.709 
 C                    -0.86465   2.14276   1.85891 
 C                     1.7208    0.94433   0.92062 
 C                    -2.93416   0.3751    2.42311 
 C                    -1.98457   2.5796    2.55758 
 C                    -3.03293   1.7022    2.83437 
 H                     0.4243   -0.76652   0.67037 
 H                    -1.75077  -1.08795   1.38986 
 H                    -0.0507    2.83927   1.68156 
 H                     2.52423   0.47343   0.34874 
 H                     1.96118   0.80974   1.98565 
 H                     1.75493   2.01942   0.71768 
 H                    -3.72969  -0.32952   2.65119 
 H                    -2.03523   3.60918   2.90074 
 H                    -3.90594   2.04529   3.38171 
 
 Add virtual bond connecting atoms H54        and Cl94       Dist= 7.11D+00.
 Add virtual bond connecting atoms H103       and Cl94       Dist= 7.01D+00.
 Add virtual bond connecting atoms H104       and Cl94       Dist= 7.17D+00.

 GradGradGradGradGradGradGradGradGradGradGradGradGradGradGradGradGradGrad
 Berny optimization.
 Initialization pass.
                           ----------------------------
                           !    Initial Parameters    !
                           ! (Angstroms and Degrees)  !
 --------------------------                            --------------------------
 ! Name  Definition              Value          Derivative Info.                !
 --------------------------------------------------------------------------------
 ! R1    R(1,2)                  1.9146         calculate D2E/DX2 analytically  !
 ! R2    R(1,3)                  1.8998         calculate D2E/DX2 analytically  !
 ! R3    R(1,4)                  1.8893         calculate D2E/DX2 analytically  !
 ! R4    R(1,5)                  1.8837         calculate D2E/DX2 analytically  !
 ! R5    R(1,95)                 2.0373         calculate D2E/DX2 analytically  !
 ! R6    R(2,8)                  1.2964         calculate D2E/DX2 analytically  !
 ! R7    R(3,9)                  1.2982         calculate D2E/DX2 analytically  !
 ! R8    R(4,22)                 1.2986         calculate D2E/DX2 analytically  !
 ! R9    R(4,24)                 1.471          calculate D2E/DX2 analytically  !
 ! R10   R(5,23)                 1.2957         calculate D2E/DX2 analytically  !
 ! R11   R(5,25)                 1.4789         calculate D2E/DX2 analytically  !
 ! R12   R(6,8)                  1.4393         calculate D2E/DX2 analytically  !
 ! R13   R(6,14)                 1.5323         calculate D2E/DX2 analytically  !
 ! R14   R(6,16)                 1.3845         calculate D2E/DX2 analytically  !
 ! R15   R(7,9)                  1.4335         calculate D2E/DX2 analytically  !
 ! R16   R(7,15)                 1.5333         calculate D2E/DX2 analytically  !
 ! R17   R(7,17)                 1.3898         calculate D2E/DX2 analytically  !
 ! R18   R(8,10)                 1.4321         calculate D2E/DX2 analytically  !
 ! R19   R(9,11)                 1.4321         calculate D2E/DX2 analytically  !
 ! R20   R(10,18)                1.4137         calculate D2E/DX2 analytically  !
 ! R21   R(10,22)                1.4263         calculate D2E/DX2 analytically  !
 ! R22   R(11,19)                1.4075         calculate D2E/DX2 analytically  !
 ! R23   R(11,23)                1.4305         calculate D2E/DX2 analytically  !
 ! R24   R(12,16)                1.4145         calculate D2E/DX2 analytically  !
 ! R25   R(12,18)                1.377          calculate D2E/DX2 analytically  !
 ! R26   R(12,20)                1.5274         calculate D2E/DX2 analytically  !
 ! R27   R(13,17)                1.4096         calculate D2E/DX2 analytically  !
 ! R28   R(13,19)                1.3817         calculate D2E/DX2 analytically  !
 ! R29   R(13,21)                1.5303         calculate D2E/DX2 analytically  !
 ! R30   R(14,26)                1.5359         calculate D2E/DX2 analytically  !
 ! R31   R(14,27)                1.5361         calculate D2E/DX2 analytically  !
 ! R32   R(14,28)                1.5298         calculate D2E/DX2 analytically  !
 ! R33   R(15,29)                1.5379         calculate D2E/DX2 analytically  !
 ! R34   R(15,30)                1.5299         calculate D2E/DX2 analytically  !
 ! R35   R(15,31)                1.5367         calculate D2E/DX2 analytically  !
 ! R36   R(16,42)                1.0852         calculate D2E/DX2 analytically  !
 ! R37   R(17,43)                1.0829         calculate D2E/DX2 analytically  !
 ! R38   R(18,44)                1.0866         calculate D2E/DX2 analytically  !
 ! R39   R(19,45)                1.0888         calculate D2E/DX2 analytically  !
 ! R40   R(20,32)                1.5271         calculate D2E/DX2 analytically  !
 ! R41   R(20,33)                1.5347         calculate D2E/DX2 analytically  !
 ! R42   R(20,34)                1.5347         calculate D2E/DX2 analytically  !
 ! R43   R(21,35)                1.534          calculate D2E/DX2 analytically  !
 ! R44   R(21,36)                1.5354         calculate D2E/DX2 analytically  !
 ! R45   R(21,37)                1.5278         calculate D2E/DX2 analytically  !
 ! R46   R(22,46)                1.0952         calculate D2E/DX2 analytically  !
 ! R47   R(23,47)                1.0923         calculate D2E/DX2 analytically  !
 ! R48   R(24,25)                1.5255         calculate D2E/DX2 analytically  !
 ! R49   R(24,38)                1.5294         calculate D2E/DX2 analytically  !
 ! R50   R(24,48)                1.098          calculate D2E/DX2 analytically  !
 ! R51   R(25,39)                1.5226         calculate D2E/DX2 analytically  !
 ! R52   R(25,49)                1.0981         calculate D2E/DX2 analytically  !
 ! R53   R(26,50)                1.0958         calculate D2E/DX2 analytically  !
 ! R54   R(26,51)                1.0894         calculate D2E/DX2 analytically  !
 ! R55   R(26,52)                1.0958         calculate D2E/DX2 analytically  !
 ! R56   R(27,53)                1.0957         calculate D2E/DX2 analytically  !
 ! R57   R(27,54)                1.0908         calculate D2E/DX2 analytically  !
 ! R58   R(27,55)                1.0959         calculate D2E/DX2 analytically  !
 ! R59   R(28,56)                1.0942         calculate D2E/DX2 analytically  !
 ! R60   R(28,57)                1.095          calculate D2E/DX2 analytically  !
 ! R61   R(28,58)                1.0946         calculate D2E/DX2 analytically  !
 ! R62   R(29,59)                1.0962         calculate D2E/DX2 analytically  !
 ! R63   R(29,60)                1.0909         calculate D2E/DX2 analytically  !
 ! R64   R(29,61)                1.096          calculate D2E/DX2 analytically  !
 ! R65   R(30,62)                1.0944         calculate D2E/DX2 analytically  !
 ! R66   R(30,63)                1.0947         calculate D2E/DX2 analytically  !
 ! R67   R(30,64)                1.0947         calculate D2E/DX2 analytically  !
 ! R68   R(31,65)                1.0955         calculate D2E/DX2 analytically  !
 ! R69   R(31,66)                1.0904         calculate D2E/DX2 analytically  !
 ! R70   R(31,67)                1.0957         calculate D2E/DX2 analytically  !
 ! R71   R(32,68)                1.0942         calculate D2E/DX2 analytically  !
 ! R72   R(32,69)                1.0945         calculate D2E/DX2 analytically  !
 ! R73   R(32,70)                1.0945         calculate D2E/DX2 analytically  !
 ! R74   R(33,71)                1.0953         calculate D2E/DX2 analytically  !
 ! R75   R(33,72)                1.0948         calculate D2E/DX2 analytically  !
 ! R76   R(33,73)                1.094          calculate D2E/DX2 analytically  !
 ! R77   R(34,74)                1.0941         calculate D2E/DX2 analytically  !
 ! R78   R(34,75)                1.0948         calculate D2E/DX2 analytically  !
 ! R79   R(34,76)                1.0953         calculate D2E/DX2 analytically  !
 ! R80   R(35,77)                1.0953         calculate D2E/DX2 analytically  !
 ! R81   R(35,78)                1.0939         calculate D2E/DX2 analytically  !
 ! R82   R(35,79)                1.0948         calculate D2E/DX2 analytically  !
 ! R83   R(36,80)                1.0951         calculate D2E/DX2 analytically  !
 ! R84   R(36,81)                1.0944         calculate D2E/DX2 analytically  !
 ! R85   R(36,82)                1.0955         calculate D2E/DX2 analytically  !
 ! R86   R(37,83)                1.0943         calculate D2E/DX2 analytically  !
 ! R87   R(37,84)                1.0946         calculate D2E/DX2 analytically  !
 ! R88   R(37,85)                1.0944         calculate D2E/DX2 analytically  !
 ! R89   R(38,40)                1.5225         calculate D2E/DX2 analytically  !
 ! R90   R(38,86)                1.0992         calculate D2E/DX2 analytically  !
 ! R91   R(38,87)                1.095          calculate D2E/DX2 analytically  !
 ! R92   R(39,41)                1.5239         calculate D2E/DX2 analytically  !
 ! R93   R(39,88)                1.097          calculate D2E/DX2 analytically  !
 ! R94   R(39,89)                1.0944         calculate D2E/DX2 analytically  !
 ! R95   R(40,41)                1.5237         calculate D2E/DX2 analytically  !
 ! R96   R(40,90)                1.0944         calculate D2E/DX2 analytically  !
 ! R97   R(40,91)                1.0986         calculate D2E/DX2 analytically  !
 ! R98   R(41,92)                1.0944         calculate D2E/DX2 analytically  !
 ! R99   R(41,93)                1.0979         calculate D2E/DX2 analytically  !
 ! R100  R(54,94)                3.7606         calculate D2E/DX2 analytically  !
 ! R101  R(94,103)               3.7105         calculate D2E/DX2 analytically  !
 ! R102  R(94,104)               3.7945         calculate D2E/DX2 analytically  !
 ! R103  R(95,96)                1.4783         calculate D2E/DX2 analytically  !
 ! R104  R(95,99)                1.507          calculate D2E/DX2 analytically  !
 ! R105  R(95,103)               1.0942         calculate D2E/DX2 analytically  !
 ! R106  R(96,97)                1.4054         calculate D2E/DX2 analytically  !
 ! R107  R(96,98)                1.4061         calculate D2E/DX2 analytically  !
 ! R108  R(97,100)               1.3891         calculate D2E/DX2 analytically  !
 ! R109  R(97,104)               1.0862         calculate D2E/DX2 analytically  !
 ! R110  R(98,101)               1.3904         calculate D2E/DX2 analytically  !
 ! R111  R(98,105)               1.0859         calculate D2E/DX2 analytically  !
 ! R112  R(99,106)               1.0928         calculate D2E/DX2 analytically  !
 ! R113  R(99,107)               1.1001         calculate D2E/DX2 analytically  !
 ! R114  R(99,108)               1.0946         calculate D2E/DX2 analytically  !
 ! R115  R(100,102)              1.3929         calculate D2E/DX2 analytically  !
 ! R116  R(100,109)              1.0869         calculate D2E/DX2 analytically  !
 ! R117  R(101,102)              1.3948         calculate D2E/DX2 analytically  !
 ! R118  R(101,110)              1.0864         calculate D2E/DX2 analytically  !
 ! R119  R(102,111)              1.086          calculate D2E/DX2 analytically  !
 ! A1    A(2,1,3)               86.4936         calculate D2E/DX2 analytically  !
 ! A2    A(2,1,4)               92.2544         calculate D2E/DX2 analytically  !
 ! A3    A(2,1,95)              89.4761         calculate D2E/DX2 analytically  !
 ! A4    A(3,1,4)              163.311          calculate D2E/DX2 analytically  !
 ! A5    A(3,1,5)               93.9044         calculate D2E/DX2 analytically  !
 ! A6    A(3,1,95)              93.8412         calculate D2E/DX2 analytically  !
 ! A7    A(4,1,5)               85.629          calculate D2E/DX2 analytically  !
 ! A8    A(4,1,95)             102.7933         calculate D2E/DX2 analytically  !
 ! A9    A(5,1,95)              96.5164         calculate D2E/DX2 analytically  !
 ! A10   A(1,2,8)              128.9334         calculate D2E/DX2 analytically  !
 ! A11   A(1,3,9)              128.3424         calculate D2E/DX2 analytically  !
 ! A12   A(1,4,22)             127.2049         calculate D2E/DX2 analytically  !
 ! A13   A(1,4,24)             113.1133         calculate D2E/DX2 analytically  !
 ! A14   A(22,4,24)            118.5938         calculate D2E/DX2 analytically  !
 ! A15   A(1,5,23)             126.0793         calculate D2E/DX2 analytically  !
 ! A16   A(1,5,25)             111.7119         calculate D2E/DX2 analytically  !
 ! A17   A(23,5,25)            121.8738         calculate D2E/DX2 analytically  !
 ! A18   A(8,6,14)             120.3299         calculate D2E/DX2 analytically  !
 ! A19   A(8,6,16)             118.2454         calculate D2E/DX2 analytically  !
 ! A20   A(14,6,16)            121.4005         calculate D2E/DX2 analytically  !
 ! A21   A(9,7,15)             120.1238         calculate D2E/DX2 analytically  !
 ! A22   A(9,7,17)             118.4129         calculate D2E/DX2 analytically  !
 ! A23   A(15,7,17)            121.463          calculate D2E/DX2 analytically  !
 ! A24   A(2,8,6)              119.6172         calculate D2E/DX2 analytically  !
 ! A25   A(2,8,10)             122.8136         calculate D2E/DX2 analytically  !
 ! A26   A(6,8,10)             117.5578         calculate D2E/DX2 analytically  !
 ! A27   A(3,9,7)              119.5223         calculate D2E/DX2 analytically  !
 ! A28   A(3,9,11)             122.6345         calculate D2E/DX2 analytically  !
 ! A29   A(7,9,11)             117.8425         calculate D2E/DX2 analytically  !
 ! A30   A(8,10,18)            120.8732         calculate D2E/DX2 analytically  !
 ! A31   A(8,10,22)            121.7021         calculate D2E/DX2 analytically  !
 ! A32   A(18,10,22)           117.4031         calculate D2E/DX2 analytically  !
 ! A33   A(9,11,19)            120.4649         calculate D2E/DX2 analytically  !
 ! A34   A(9,11,23)            122.6019         calculate D2E/DX2 analytically  !
 ! A35   A(19,11,23)           116.8684         calculate D2E/DX2 analytically  !
 ! A36   A(16,12,18)           116.7069         calculate D2E/DX2 analytically  !
 ! A37   A(16,12,20)           119.4475         calculate D2E/DX2 analytically  !
 ! A38   A(18,12,20)           123.8448         calculate D2E/DX2 analytically  !
 ! A39   A(17,13,19)           116.6531         calculate D2E/DX2 analytically  !
 ! A40   A(17,13,21)           123.0344         calculate D2E/DX2 analytically  !
 ! A41   A(19,13,21)           120.2993         calculate D2E/DX2 analytically  !
 ! A42   A(6,14,26)            111.0289         calculate D2E/DX2 analytically  !
 ! A43   A(6,14,27)            109.185          calculate D2E/DX2 analytically  !
 ! A44   A(6,14,28)            112.0699         calculate D2E/DX2 analytically  !
 ! A45   A(26,14,27)           109.4497         calculate D2E/DX2 analytically  !
 ! A46   A(26,14,28)           107.4765         calculate D2E/DX2 analytically  !
 ! A47   A(27,14,28)           107.5375         calculate D2E/DX2 analytically  !
 ! A48   A(7,15,29)            110.8619         calculate D2E/DX2 analytically  !
 ! A49   A(7,15,30)            112.1025         calculate D2E/DX2 analytically  !
 ! A50   A(7,15,31)            109.3886         calculate D2E/DX2 analytically  !
 ! A51   A(29,15,30)           107.1815         calculate D2E/DX2 analytically  !
 ! A52   A(29,15,31)           109.8844         calculate D2E/DX2 analytically  !
 ! A53   A(30,15,31)           107.3332         calculate D2E/DX2 analytically  !
 ! A54   A(6,16,12)            124.7829         calculate D2E/DX2 analytically  !
 ! A55   A(6,16,42)            118.0977         calculate D2E/DX2 analytically  !
 ! A56   A(12,16,42)           117.1188         calculate D2E/DX2 analytically  !
 ! A57   A(7,17,13)            124.4005         calculate D2E/DX2 analytically  !
 ! A58   A(7,17,43)            117.7994         calculate D2E/DX2 analytically  !
 ! A59   A(13,17,43)           117.799          calculate D2E/DX2 analytically  !
 ! A60   A(10,18,12)           121.7824         calculate D2E/DX2 analytically  !
 ! A61   A(10,18,44)           117.1878         calculate D2E/DX2 analytically  !
 ! A62   A(12,18,44)           121.0298         calculate D2E/DX2 analytically  !
 ! A63   A(11,19,13)           122.1708         calculate D2E/DX2 analytically  !
 ! A64   A(11,19,45)           117.4185         calculate D2E/DX2 analytically  !
 ! A65   A(13,19,45)           120.3889         calculate D2E/DX2 analytically  !
 ! A66   A(12,20,32)           111.9345         calculate D2E/DX2 analytically  !
 ! A67   A(12,20,33)           109.6223         calculate D2E/DX2 analytically  !
 ! A68   A(12,20,34)           109.4681         calculate D2E/DX2 analytically  !
 ! A69   A(32,20,33)           108.4224         calculate D2E/DX2 analytically  !
 ! A70   A(32,20,34)           108.4404         calculate D2E/DX2 analytically  !
 ! A71   A(33,20,34)           108.8946         calculate D2E/DX2 analytically  !
 ! A72   A(13,21,35)           109.756          calculate D2E/DX2 analytically  !
 ! A73   A(13,21,36)           109.0818         calculate D2E/DX2 analytically  !
 ! A74   A(13,21,37)           112.344          calculate D2E/DX2 analytically  !
 ! A75   A(35,21,36)           108.9164         calculate D2E/DX2 analytically  !
 ! A76   A(35,21,37)           108.3369         calculate D2E/DX2 analytically  !
 ! A77   A(36,21,37)           108.3399         calculate D2E/DX2 analytically  !
 ! A78   A(4,22,10)            125.9295         calculate D2E/DX2 analytically  !
 ! A79   A(4,22,46)            117.6732         calculate D2E/DX2 analytically  !
 ! A80   A(10,22,46)           116.397          calculate D2E/DX2 analytically  !
 ! A81   A(5,23,11)            125.9624         calculate D2E/DX2 analytically  !
 ! A82   A(5,23,47)            118.6622         calculate D2E/DX2 analytically  !
 ! A83   A(11,23,47)           115.3607         calculate D2E/DX2 analytically  !
 ! A84   A(4,24,25)            106.4026         calculate D2E/DX2 analytically  !
 ! A85   A(4,24,38)            110.1158         calculate D2E/DX2 analytically  !
 ! A86   A(4,24,48)            109.8148         calculate D2E/DX2 analytically  !
 ! A87   A(25,24,38)           111.4318         calculate D2E/DX2 analytically  !
 ! A88   A(25,24,48)           109.4414         calculate D2E/DX2 analytically  !
 ! A89   A(38,24,48)           109.5826         calculate D2E/DX2 analytically  !
 ! A90   A(5,25,24)            105.538          calculate D2E/DX2 analytically  !
 ! A91   A(5,25,39)            117.0705         calculate D2E/DX2 analytically  !
 ! A92   A(5,25,49)            105.102          calculate D2E/DX2 analytically  !
 ! A93   A(24,25,39)           111.8546         calculate D2E/DX2 analytically  !
 ! A94   A(24,25,49)           107.6145         calculate D2E/DX2 analytically  !
 ! A95   A(39,25,49)           109.0961         calculate D2E/DX2 analytically  !
 ! A96   A(14,26,50)           109.9063         calculate D2E/DX2 analytically  !
 ! A97   A(14,26,51)           111.3583         calculate D2E/DX2 analytically  !
 ! A98   A(14,26,52)           111.0333         calculate D2E/DX2 analytically  !
 ! A99   A(50,26,51)           108.5104         calculate D2E/DX2 analytically  !
 ! A100  A(50,26,52)           107.4569         calculate D2E/DX2 analytically  !
 ! A101  A(51,26,52)           108.4567         calculate D2E/DX2 analytically  !
 ! A102  A(14,27,53)           111.067          calculate D2E/DX2 analytically  !
 ! A103  A(14,27,54)           111.5482         calculate D2E/DX2 analytically  !
 ! A104  A(14,27,55)           110.4543         calculate D2E/DX2 analytically  !
 ! A105  A(53,27,54)           108.1245         calculate D2E/DX2 analytically  !
 ! A106  A(53,27,55)           107.5255         calculate D2E/DX2 analytically  !
 ! A107  A(54,27,55)           107.9699         calculate D2E/DX2 analytically  !
 ! A108  A(14,28,56)           109.2302         calculate D2E/DX2 analytically  !
 ! A109  A(14,28,57)           112.2888         calculate D2E/DX2 analytically  !
 ! A110  A(14,28,58)           112.4195         calculate D2E/DX2 analytically  !
 ! A111  A(56,28,57)           107.387          calculate D2E/DX2 analytically  !
 ! A112  A(56,28,58)           107.2949         calculate D2E/DX2 analytically  !
 ! A113  A(57,28,58)           107.9796         calculate D2E/DX2 analytically  !
 ! A114  A(15,29,59)           109.9819         calculate D2E/DX2 analytically  !
 ! A115  A(15,29,60)           111.951          calculate D2E/DX2 analytically  !
 ! A116  A(15,29,61)           110.7707         calculate D2E/DX2 analytically  !
 ! A117  A(59,29,60)           108.2622         calculate D2E/DX2 analytically  !
 ! A118  A(59,29,61)           107.3055         calculate D2E/DX2 analytically  !
 ! A119  A(60,29,61)           108.4202         calculate D2E/DX2 analytically  !
 ! A120  A(15,30,62)           109.2561         calculate D2E/DX2 analytically  !
 ! A121  A(15,30,63)           112.2862         calculate D2E/DX2 analytically  !
 ! A122  A(15,30,64)           112.3787         calculate D2E/DX2 analytically  !
 ! A123  A(62,30,63)           107.3419         calculate D2E/DX2 analytically  !
 ! A124  A(62,30,64)           107.3406         calculate D2E/DX2 analytically  !
 ! A125  A(63,30,64)           107.9983         calculate D2E/DX2 analytically  !
 ! A126  A(15,31,65)           110.6843         calculate D2E/DX2 analytically  !
 ! A127  A(15,31,66)           111.5759         calculate D2E/DX2 analytically  !
 ! A128  A(15,31,67)           110.3429         calculate D2E/DX2 analytically  !
 ! A129  A(65,31,66)           108.3173         calculate D2E/DX2 analytically  !
 ! A130  A(65,31,67)           107.5419         calculate D2E/DX2 analytically  !
 ! A131  A(66,31,67)           108.2476         calculate D2E/DX2 analytically  !
 ! A132  A(20,32,68)           109.8871         calculate D2E/DX2 analytically  !
 ! A133  A(20,32,69)           111.9639         calculate D2E/DX2 analytically  !
 ! A134  A(20,32,70)           111.9598         calculate D2E/DX2 analytically  !
 ! A135  A(68,32,69)           107.4626         calculate D2E/DX2 analytically  !
 ! A136  A(68,32,70)           107.4641         calculate D2E/DX2 analytically  !
 ! A137  A(69,32,70)           107.8955         calculate D2E/DX2 analytically  !
 ! A138  A(20,33,71)           110.5472         calculate D2E/DX2 analytically  !
 ! A139  A(20,33,72)           111.2098         calculate D2E/DX2 analytically  !
 ! A140  A(20,33,73)           111.87           calculate D2E/DX2 analytically  !
 ! A141  A(71,33,72)           107.8027         calculate D2E/DX2 analytically  !
 ! A142  A(71,33,73)           107.4852         calculate D2E/DX2 analytically  !
 ! A143  A(72,33,73)           107.7461         calculate D2E/DX2 analytically  !
 ! A144  A(20,34,74)           111.8117         calculate D2E/DX2 analytically  !
 ! A145  A(20,34,75)           111.2139         calculate D2E/DX2 analytically  !
 ! A146  A(20,34,76)           110.5854         calculate D2E/DX2 analytically  !
 ! A147  A(74,34,75)           107.7418         calculate D2E/DX2 analytically  !
 ! A148  A(74,34,76)           107.5054         calculate D2E/DX2 analytically  !
 ! A149  A(75,34,76)           107.8041         calculate D2E/DX2 analytically  !
 ! A150  A(21,35,77)           110.5936         calculate D2E/DX2 analytically  !
 ! A151  A(21,35,78)           111.8125         calculate D2E/DX2 analytically  !
 ! A152  A(21,35,79)           111.2195         calculate D2E/DX2 analytically  !
 ! A153  A(77,35,78)           107.5035         calculate D2E/DX2 analytically  !
 ! A154  A(77,35,79)           107.7725         calculate D2E/DX2 analytically  !
 ! A155  A(78,35,79)           107.7594         calculate D2E/DX2 analytically  !
 ! A156  A(21,36,80)           111.1728         calculate D2E/DX2 analytically  !
 ! A157  A(21,36,81)           111.6315         calculate D2E/DX2 analytically  !
 ! A158  A(21,36,82)           110.7112         calculate D2E/DX2 analytically  !
 ! A159  A(80,36,81)           107.6649         calculate D2E/DX2 analytically  !
 ! A160  A(80,36,82)           107.8249         calculate D2E/DX2 analytically  !
 ! A161  A(81,36,82)           107.6647         calculate D2E/DX2 analytically  !
 ! A162  A(21,37,83)           109.7447         calculate D2E/DX2 analytically  !
 ! A163  A(21,37,84)           112.0363         calculate D2E/DX2 analytically  !
 ! A164  A(21,37,85)           112.0987         calculate D2E/DX2 analytically  !
 ! A165  A(83,37,84)           107.4503         calculate D2E/DX2 analytically  !
 ! A166  A(83,37,85)           107.3776         calculate D2E/DX2 analytically  !
 ! A167  A(84,37,85)           107.9155         calculate D2E/DX2 analytically  !
 ! A168  A(24,38,40)           111.6235         calculate D2E/DX2 analytically  !
 ! A169  A(24,38,86)           108.225          calculate D2E/DX2 analytically  !
 ! A170  A(24,38,87)           109.0208         calculate D2E/DX2 analytically  !
 ! A171  A(40,38,86)           109.8009         calculate D2E/DX2 analytically  !
 ! A172  A(40,38,87)           111.3671         calculate D2E/DX2 analytically  !
 ! A173  A(86,38,87)           106.6299         calculate D2E/DX2 analytically  !
 ! A174  A(25,39,41)           112.8543         calculate D2E/DX2 analytically  !
 ! A175  A(25,39,88)           106.4398         calculate D2E/DX2 analytically  !
 ! A176  A(25,39,89)           110.5898         calculate D2E/DX2 analytically  !
 ! A177  A(41,39,88)           109.1692         calculate D2E/DX2 analytically  !
 ! A178  A(41,39,89)           111.8532         calculate D2E/DX2 analytically  !
 ! A179  A(88,39,89)           105.5134         calculate D2E/DX2 analytically  !
 ! A180  A(38,40,41)           110.907          calculate D2E/DX2 analytically  !
 ! A181  A(38,40,90)           109.8889         calculate D2E/DX2 analytically  !
 ! A182  A(38,40,91)           109.4363         calculate D2E/DX2 analytically  !
 ! A183  A(41,40,90)           110.6722         calculate D2E/DX2 analytically  !
 ! A184  A(41,40,91)           109.3612         calculate D2E/DX2 analytically  !
 ! A185  A(90,40,91)           106.4674         calculate D2E/DX2 analytically  !
 ! A186  A(39,41,40)           110.5762         calculate D2E/DX2 analytically  !
 ! A187  A(39,41,92)           109.7661         calculate D2E/DX2 analytically  !
 ! A188  A(39,41,93)           110.0856         calculate D2E/DX2 analytically  !
 ! A189  A(40,41,92)           110.6754         calculate D2E/DX2 analytically  !
 ! A190  A(40,41,93)           109.3029         calculate D2E/DX2 analytically  !
 ! A191  A(92,41,93)           106.3468         calculate D2E/DX2 analytically  !
 ! A192  A(27,54,94)           100.9426         calculate D2E/DX2 analytically  !
 ! A193  A(54,94,103)           32.5863         calculate D2E/DX2 analytically  !
 ! A194  A(54,94,104)           58.5253         calculate D2E/DX2 analytically  !
 ! A195  A(103,94,104)          35.8852         calculate D2E/DX2 analytically  !
 ! A196  A(1,95,96)            112.9433         calculate D2E/DX2 analytically  !
 ! A197  A(1,95,99)            110.0655         calculate D2E/DX2 analytically  !
 ! A198  A(1,95,103)            94.5802         calculate D2E/DX2 analytically  !
 ! A199  A(96,95,99)           116.3354         calculate D2E/DX2 analytically  !
 ! A200  A(96,95,103)          109.4623         calculate D2E/DX2 analytically  !
 ! A201  A(99,95,103)          111.3769         calculate D2E/DX2 analytically  !
 ! A202  A(95,96,97)           119.7479         calculate D2E/DX2 analytically  !
 ! A203  A(95,96,98)           123.0823         calculate D2E/DX2 analytically  !
 ! A204  A(97,96,98)           117.1587         calculate D2E/DX2 analytically  !
 ! A205  A(96,97,100)          121.7527         calculate D2E/DX2 analytically  !
 ! A206  A(96,97,104)          118.4585         calculate D2E/DX2 analytically  !
 ! A207  A(100,97,104)         119.7882         calculate D2E/DX2 analytically  !
 ! A208  A(96,98,101)          121.2297         calculate D2E/DX2 analytically  !
 ! A209  A(96,98,105)          119.8027         calculate D2E/DX2 analytically  !
 ! A210  A(101,98,105)         118.9672         calculate D2E/DX2 analytically  !
 ! A211  A(95,99,106)          111.4743         calculate D2E/DX2 analytically  !
 ! A212  A(95,99,107)          110.2281         calculate D2E/DX2 analytically  !
 ! A213  A(95,99,108)          113.1149         calculate D2E/DX2 analytically  !
 ! A214  A(106,99,107)         107.0533         calculate D2E/DX2 analytically  !
 ! A215  A(106,99,108)         107.6548         calculate D2E/DX2 analytically  !
 ! A216  A(107,99,108)         107.0285         calculate D2E/DX2 analytically  !
 ! A217  A(97,100,102)         120.1072         calculate D2E/DX2 analytically  !
 ! A218  A(97,100,109)         119.6386         calculate D2E/DX2 analytically  !
 ! A219  A(102,100,109)        120.2521         calculate D2E/DX2 analytically  !
 ! A220  A(98,101,102)         120.4961         calculate D2E/DX2 analytically  !
 ! A221  A(98,101,110)         119.6046         calculate D2E/DX2 analytically  !
 ! A222  A(102,101,110)        119.8945         calculate D2E/DX2 analytically  !
 ! A223  A(100,102,101)        119.1734         calculate D2E/DX2 analytically  !
 ! A224  A(100,102,111)        120.4517         calculate D2E/DX2 analytically  !
 ! A225  A(101,102,111)        120.363          calculate D2E/DX2 analytically  !
 ! A226  A(94,103,95)          121.6661         calculate D2E/DX2 analytically  !
 ! A227  A(94,104,97)          101.7859         calculate D2E/DX2 analytically  !
 ! A228  L(2,1,5,3,-1)         180.398          calculate D2E/DX2 analytically  !
 ! A229  L(2,1,5,3,-2)         186.049          calculate D2E/DX2 analytically  !
 ! D1    D(3,1,2,8)            173.7458         calculate D2E/DX2 analytically  !
 ! D2    D(4,1,2,8)             10.4093         calculate D2E/DX2 analytically  !
 ! D3    D(95,1,2,8)           -92.3735         calculate D2E/DX2 analytically  !
 ! D4    D(2,1,3,9)            178.1293         calculate D2E/DX2 analytically  !
 ! D5    D(4,1,3,9)            -95.721          calculate D2E/DX2 analytically  !
 ! D6    D(5,1,3,9)             -7.9196         calculate D2E/DX2 analytically  !
 ! D7    D(95,1,3,9)            88.8911         calculate D2E/DX2 analytically  !
 ! D8    D(2,1,4,22)            -1.4865         calculate D2E/DX2 analytically  !
 ! D9    D(2,1,4,24)           166.2983         calculate D2E/DX2 analytically  !
 ! D10   D(3,1,4,22)           -86.7928         calculate D2E/DX2 analytically  !
 ! D11   D(3,1,4,24)            80.9919         calculate D2E/DX2 analytically  !
 ! D12   D(5,1,4,22)          -175.8096         calculate D2E/DX2 analytically  !
 ! D13   D(5,1,4,24)            -8.0249         calculate D2E/DX2 analytically  !
 ! D14   D(95,1,4,22)           88.4881         calculate D2E/DX2 analytically  !
 ! D15   D(95,1,4,24)         -103.7272         calculate D2E/DX2 analytically  !
 ! D16   D(3,1,5,23)             4.7685         calculate D2E/DX2 analytically  !
 ! D17   D(3,1,5,25)           178.1821         calculate D2E/DX2 analytically  !
 ! D18   D(4,1,5,23)           168.0422         calculate D2E/DX2 analytically  !
 ! D19   D(4,1,5,25)           -18.5443         calculate D2E/DX2 analytically  !
 ! D20   D(95,1,5,23)          -89.5545         calculate D2E/DX2 analytically  !
 ! D21   D(95,1,5,25)           83.859          calculate D2E/DX2 analytically  !
 ! D22   D(2,1,95,96)         -152.2881         calculate D2E/DX2 analytically  !
 ! D23   D(2,1,95,99)           75.8388         calculate D2E/DX2 analytically  !
 ! D24   D(2,1,95,103)         -38.9049         calculate D2E/DX2 analytically  !
 ! D25   D(3,1,95,96)          -65.8378         calculate D2E/DX2 analytically  !
 ! D26   D(3,1,95,99)          162.2891         calculate D2E/DX2 analytically  !
 ! D27   D(3,1,95,103)          47.5454         calculate D2E/DX2 analytically  !
 ! D28   D(4,1,95,96)          115.5191         calculate D2E/DX2 analytically  !
 ! D29   D(4,1,95,99)          -16.354          calculate D2E/DX2 analytically  !
 ! D30   D(4,1,95,103)        -131.0977         calculate D2E/DX2 analytically  !
 ! D31   D(5,1,95,96)           28.5415         calculate D2E/DX2 analytically  !
 ! D32   D(5,1,95,99)         -103.3316         calculate D2E/DX2 analytically  !
 ! D33   D(5,1,95,103)         141.9247         calculate D2E/DX2 analytically  !
 ! D34   D(1,2,8,6)            169.5191         calculate D2E/DX2 analytically  !
 ! D35   D(1,2,8,10)           -11.7445         calculate D2E/DX2 analytically  !
 ! D36   D(1,3,9,7)           -172.7152         calculate D2E/DX2 analytically  !
 ! D37   D(1,3,9,11)             6.9796         calculate D2E/DX2 analytically  !
 ! D38   D(1,4,22,10)           -6.0651         calculate D2E/DX2 analytically  !
 ! D39   D(1,4,22,46)          173.72           calculate D2E/DX2 analytically  !
 ! D40   D(24,4,22,10)        -173.2602         calculate D2E/DX2 analytically  !
 ! D41   D(24,4,22,46)           6.5249         calculate D2E/DX2 analytically  !
 ! D42   D(1,4,24,25)           31.1607         calculate D2E/DX2 analytically  !
 ! D43   D(1,4,24,38)          -89.7335         calculate D2E/DX2 analytically  !
 ! D44   D(1,4,24,48)          149.5112         calculate D2E/DX2 analytically  !
 ! D45   D(22,4,24,25)        -159.9049         calculate D2E/DX2 analytically  !
 ! D46   D(22,4,24,38)          79.2009         calculate D2E/DX2 analytically  !
 ! D47   D(22,4,24,48)         -41.5544         calculate D2E/DX2 analytically  !
 ! D48   D(1,5,23,11)           -0.9556         calculate D2E/DX2 analytically  !
 ! D49   D(1,5,23,47)          177.5814         calculate D2E/DX2 analytically  !
 ! D50   D(25,5,23,11)        -173.7467         calculate D2E/DX2 analytically  !
 ! D51   D(25,5,23,47)           4.7903         calculate D2E/DX2 analytically  !
 ! D52   D(1,5,25,24)           39.1969         calculate D2E/DX2 analytically  !
 ! D53   D(1,5,25,39)          164.3671         calculate D2E/DX2 analytically  !
 ! D54   D(1,5,25,49)          -74.4036         calculate D2E/DX2 analytically  !
 ! D55   D(23,5,25,24)        -147.0702         calculate D2E/DX2 analytically  !
 ! D56   D(23,5,25,39)         -21.9            calculate D2E/DX2 analytically  !
 ! D57   D(23,5,25,49)          99.3293         calculate D2E/DX2 analytically  !
 ! D58   D(14,6,8,2)            -5.2462         calculate D2E/DX2 analytically  !
 ! D59   D(14,6,8,10)          175.9516         calculate D2E/DX2 analytically  !
 ! D60   D(16,6,8,2)           176.5146         calculate D2E/DX2 analytically  !
 ! D61   D(16,6,8,10)           -2.2876         calculate D2E/DX2 analytically  !
 ! D62   D(8,6,14,26)           59.4635         calculate D2E/DX2 analytically  !
 ! D63   D(8,6,14,27)          -61.299          calculate D2E/DX2 analytically  !
 ! D64   D(8,6,14,28)          179.6657         calculate D2E/DX2 analytically  !
 ! D65   D(16,6,14,26)        -122.3538         calculate D2E/DX2 analytically  !
 ! D66   D(16,6,14,27)         116.8837         calculate D2E/DX2 analytically  !
 ! D67   D(16,6,14,28)          -2.1516         calculate D2E/DX2 analytically  !
 ! D68   D(8,6,16,12)            0.6168         calculate D2E/DX2 analytically  !
 ! D69   D(8,6,16,42)         -179.6696         calculate D2E/DX2 analytically  !
 ! D70   D(14,6,16,12)        -177.6027         calculate D2E/DX2 analytically  !
 ! D71   D(14,6,16,42)           2.111          calculate D2E/DX2 analytically  !
 ! D72   D(15,7,9,3)            -2.5932         calculate D2E/DX2 analytically  !
 ! D73   D(15,7,9,11)          177.6974         calculate D2E/DX2 analytically  !
 ! D74   D(17,7,9,3)           177.2444         calculate D2E/DX2 analytically  !
 ! D75   D(17,7,9,11)           -2.4649         calculate D2E/DX2 analytically  !
 ! D76   D(9,7,15,29)           59.7633         calculate D2E/DX2 analytically  !
 ! D77   D(9,7,15,30)          179.4969         calculate D2E/DX2 analytically  !
 ! D78   D(9,7,15,31)          -61.5683         calculate D2E/DX2 analytically  !
 ! D79   D(17,7,15,29)        -120.0693         calculate D2E/DX2 analytically  !
 ! D80   D(17,7,15,30)          -0.3357         calculate D2E/DX2 analytically  !
 ! D81   D(17,7,15,31)         118.5991         calculate D2E/DX2 analytically  !
 ! D82   D(9,7,17,13)            1.0616         calculate D2E/DX2 analytically  !
 ! D83   D(9,7,17,43)         -178.5652         calculate D2E/DX2 analytically  !
 ! D84   D(15,7,17,13)        -179.103          calculate D2E/DX2 analytically  !
 ! D85   D(15,7,17,43)           1.2702         calculate D2E/DX2 analytically  !
 ! D86   D(2,8,10,18)         -176.186          calculate D2E/DX2 analytically  !
 ! D87   D(2,8,10,22)            2.0812         calculate D2E/DX2 analytically  !
 ! D88   D(6,8,10,18)            2.575          calculate D2E/DX2 analytically  !
 ! D89   D(6,8,10,22)         -179.1578         calculate D2E/DX2 analytically  !
 ! D90   D(3,9,11,19)         -177.7924         calculate D2E/DX2 analytically  !
 ! D91   D(3,9,11,23)           -0.8135         calculate D2E/DX2 analytically  !
 ! D92   D(7,9,11,19)            1.9073         calculate D2E/DX2 analytically  !
 ! D93   D(7,9,11,23)          178.8862         calculate D2E/DX2 analytically  !
 ! D94   D(8,10,18,12)          -1.125          calculate D2E/DX2 analytically  !
 ! D95   D(8,10,18,44)         178.9191         calculate D2E/DX2 analytically  !
 ! D96   D(22,10,18,12)       -179.4644         calculate D2E/DX2 analytically  !
 ! D97   D(22,10,18,44)          0.5797         calculate D2E/DX2 analytically  !
 ! D98   D(8,10,22,4)            7.1582         calculate D2E/DX2 analytically  !
 ! D99   D(8,10,22,46)        -172.6293         calculate D2E/DX2 analytically  !
 ! D100  D(18,10,22,4)        -174.517          calculate D2E/DX2 analytically  !
 ! D101  D(18,10,22,46)          5.6955         calculate D2E/DX2 analytically  !
 ! D102  D(9,11,19,13)           0.1836         calculate D2E/DX2 analytically  !
 ! D103  D(9,11,19,45)         178.491          calculate D2E/DX2 analytically  !
 ! D104  D(23,11,19,13)       -176.9635         calculate D2E/DX2 analytically  !
 ! D105  D(23,11,19,45)          1.3439         calculate D2E/DX2 analytically  !
 ! D106  D(9,11,23,5)           -2.315          calculate D2E/DX2 analytically  !
 ! D107  D(9,11,23,47)         179.1056         calculate D2E/DX2 analytically  !
 ! D108  D(19,11,23,5)         174.7659         calculate D2E/DX2 analytically  !
 ! D109  D(19,11,23,47)         -3.8134         calculate D2E/DX2 analytically  !
 ! D110  D(18,12,16,6)           0.8727         calculate D2E/DX2 analytically  !
 ! D111  D(18,12,16,42)       -178.8435         calculate D2E/DX2 analytically  !
 ! D112  D(20,12,16,6)        -179.4366         calculate D2E/DX2 analytically  !
 ! D113  D(20,12,16,42)          0.8472         calculate D2E/DX2 analytically  !
 ! D114  D(16,12,18,10)         -0.6108         calculate D2E/DX2 analytically  !
 ! D115  D(16,12,18,44)        179.3434         calculate D2E/DX2 analytically  !
 ! D116  D(20,12,18,10)        179.7135         calculate D2E/DX2 analytically  !
 ! D117  D(20,12,18,44)         -0.3323         calculate D2E/DX2 analytically  !
 ! D118  D(16,12,20,32)       -179.623          calculate D2E/DX2 analytically  !
 ! D119  D(16,12,20,33)        -59.2747         calculate D2E/DX2 analytically  !
 ! D120  D(16,12,20,34)         60.1099         calculate D2E/DX2 analytically  !
 ! D121  D(18,12,20,32)          0.0443         calculate D2E/DX2 analytically  !
 ! D122  D(18,12,20,33)        120.3927         calculate D2E/DX2 analytically  !
 ! D123  D(18,12,20,34)       -120.2227         calculate D2E/DX2 analytically  !
 ! D124  D(19,13,17,7)           1.0054         calculate D2E/DX2 analytically  !
 ! D125  D(19,13,17,43)       -179.3677         calculate D2E/DX2 analytically  !
 ! D126  D(21,13,17,7)        -177.6773         calculate D2E/DX2 analytically  !
 ! D127  D(21,13,17,43)          1.9495         calculate D2E/DX2 analytically  !
 ! D128  D(17,13,19,11)         -1.6239         calculate D2E/DX2 analytically  !
 ! D129  D(17,13,19,45)       -179.8821         calculate D2E/DX2 analytically  !
 ! D130  D(21,13,19,11)        177.0971         calculate D2E/DX2 analytically  !
 ! D131  D(21,13,19,45)         -1.1611         calculate D2E/DX2 analytically  !
 ! D132  D(17,13,21,35)       -123.6589         calculate D2E/DX2 analytically  !
 ! D133  D(17,13,21,36)        117.0839         calculate D2E/DX2 analytically  !
 ! D134  D(17,13,21,37)         -3.0592         calculate D2E/DX2 analytically  !
 ! D135  D(19,13,21,35)         57.7047         calculate D2E/DX2 analytically  !
 ! D136  D(19,13,21,36)        -61.5526         calculate D2E/DX2 analytically  !
 ! D137  D(19,13,21,37)        178.3044         calculate D2E/DX2 analytically  !
 ! D138  D(6,14,26,50)         177.9275         calculate D2E/DX2 analytically  !
 ! D139  D(6,14,26,51)         -61.7969         calculate D2E/DX2 analytically  !
 ! D140  D(6,14,26,52)          59.172          calculate D2E/DX2 analytically  !
 ! D141  D(27,14,26,50)        -61.4664         calculate D2E/DX2 analytically  !
 ! D142  D(27,14,26,51)         58.8092         calculate D2E/DX2 analytically  !
 ! D143  D(27,14,26,52)        179.7781         calculate D2E/DX2 analytically  !
 ! D144  D(28,14,26,50)         55.0347         calculate D2E/DX2 analytically  !
 ! D145  D(28,14,26,51)        175.3103         calculate D2E/DX2 analytically  !
 ! D146  D(28,14,26,52)        -63.7208         calculate D2E/DX2 analytically  !
 ! D147  D(6,14,27,53)         -60.2822         calculate D2E/DX2 analytically  !
 ! D148  D(6,14,27,54)          60.4166         calculate D2E/DX2 analytically  !
 ! D149  D(6,14,27,55)        -179.4971         calculate D2E/DX2 analytically  !
 ! D150  D(26,14,27,53)        177.9955         calculate D2E/DX2 analytically  !
 ! D151  D(26,14,27,54)        -61.3057         calculate D2E/DX2 analytically  !
 ! D152  D(26,14,27,55)         58.7806         calculate D2E/DX2 analytically  !
 ! D153  D(28,14,27,53)         61.533          calculate D2E/DX2 analytically  !
 ! D154  D(28,14,27,54)       -177.7682         calculate D2E/DX2 analytically  !
 ! D155  D(28,14,27,55)        -57.6819         calculate D2E/DX2 analytically  !
 ! D156  D(6,14,28,56)         179.8123         calculate D2E/DX2 analytically  !
 ! D157  D(6,14,28,57)         -61.1736         calculate D2E/DX2 analytically  !
 ! D158  D(6,14,28,58)          60.8314         calculate D2E/DX2 analytically  !
 ! D159  D(26,14,28,56)        -57.9384         calculate D2E/DX2 analytically  !
 ! D160  D(26,14,28,57)         61.0756         calculate D2E/DX2 analytically  !
 ! D161  D(26,14,28,58)       -176.9194         calculate D2E/DX2 analytically  !
 ! D162  D(27,14,28,56)         59.8112         calculate D2E/DX2 analytically  !
 ! D163  D(27,14,28,57)        178.8253         calculate D2E/DX2 analytically  !
 ! D164  D(27,14,28,58)        -59.1697         calculate D2E/DX2 analytically  !
 ! D165  D(7,15,29,59)        -179.6889         calculate D2E/DX2 analytically  !
 ! D166  D(7,15,29,60)         -59.2879         calculate D2E/DX2 analytically  !
 ! D167  D(7,15,29,61)          61.8583         calculate D2E/DX2 analytically  !
 ! D168  D(30,15,29,59)         57.6746         calculate D2E/DX2 analytically  !
 ! D169  D(30,15,29,60)        178.0756         calculate D2E/DX2 analytically  !
 ! D170  D(30,15,29,61)        -60.7782         calculate D2E/DX2 analytically  !
 ! D171  D(31,15,29,59)        -58.6496         calculate D2E/DX2 analytically  !
 ! D172  D(31,15,29,60)         61.7514         calculate D2E/DX2 analytically  !
 ! D173  D(31,15,29,61)       -177.1023         calculate D2E/DX2 analytically  !
 ! D174  D(7,15,30,62)         179.4843         calculate D2E/DX2 analytically  !
 ! D175  D(7,15,30,63)         -61.5426         calculate D2E/DX2 analytically  !
 ! D176  D(7,15,30,64)          60.4547         calculate D2E/DX2 analytically  !
 ! D177  D(29,15,30,62)        -58.653          calculate D2E/DX2 analytically  !
 ! D178  D(29,15,30,63)         60.3201         calculate D2E/DX2 analytically  !
 ! D179  D(29,15,30,64)       -177.6826         calculate D2E/DX2 analytically  !
 ! D180  D(31,15,30,62)         59.3455         calculate D2E/DX2 analytically  !
 ! D181  D(31,15,30,63)        178.3187         calculate D2E/DX2 analytically  !
 ! D182  D(31,15,30,64)        -59.6841         calculate D2E/DX2 analytically  !
 ! D183  D(7,15,31,65)         -61.7337         calculate D2E/DX2 analytically  !
 ! D184  D(7,15,31,66)          58.9665         calculate D2E/DX2 analytically  !
 ! D185  D(7,15,31,67)         179.3465         calculate D2E/DX2 analytically  !
 ! D186  D(29,15,31,65)        176.3452         calculate D2E/DX2 analytically  !
 ! D187  D(29,15,31,66)        -62.9546         calculate D2E/DX2 analytically  !
 ! D188  D(29,15,31,67)         57.4253         calculate D2E/DX2 analytically  !
 ! D189  D(30,15,31,65)         60.1165         calculate D2E/DX2 analytically  !
 ! D190  D(30,15,31,66)       -179.1833         calculate D2E/DX2 analytically  !
 ! D191  D(30,15,31,67)        -58.8034         calculate D2E/DX2 analytically  !
 ! D192  D(12,20,32,68)       -179.9095         calculate D2E/DX2 analytically  !
 ! D193  D(12,20,32,69)        -60.5706         calculate D2E/DX2 analytically  !
 ! D194  D(12,20,32,70)         60.7523         calculate D2E/DX2 analytically  !
 ! D195  D(33,20,32,68)         59.0452         calculate D2E/DX2 analytically  !
 ! D196  D(33,20,32,69)        178.3842         calculate D2E/DX2 analytically  !
 ! D197  D(33,20,32,70)        -60.2929         calculate D2E/DX2 analytically  !
 ! D198  D(34,20,32,68)        -59.0449         calculate D2E/DX2 analytically  !
 ! D199  D(34,20,32,69)         60.2941         calculate D2E/DX2 analytically  !
 ! D200  D(34,20,32,70)       -178.383          calculate D2E/DX2 analytically  !
 ! D201  D(12,20,33,71)        179.5351         calculate D2E/DX2 analytically  !
 ! D202  D(12,20,33,72)        -60.7494         calculate D2E/DX2 analytically  !
 ! D203  D(12,20,33,73)         59.7858         calculate D2E/DX2 analytically  !
 ! D204  D(32,20,33,71)        -58.0021         calculate D2E/DX2 analytically  !
 ! D205  D(32,20,33,72)         61.7134         calculate D2E/DX2 analytically  !
 ! D206  D(32,20,33,73)       -177.7514         calculate D2E/DX2 analytically  !
 ! D207  D(34,20,33,71)         59.7987         calculate D2E/DX2 analytically  !
 ! D208  D(34,20,33,72)        179.5142         calculate D2E/DX2 analytically  !
 ! D209  D(34,20,33,73)        -59.9506         calculate D2E/DX2 analytically  !
 ! D210  D(12,20,34,74)        -59.6256         calculate D2E/DX2 analytically  !
 ! D211  D(12,20,34,75)         60.867          calculate D2E/DX2 analytically  !
 ! D212  D(12,20,34,76)       -179.3877         calculate D2E/DX2 analytically  !
 ! D213  D(32,20,34,74)        177.9958         calculate D2E/DX2 analytically  !
 ! D214  D(32,20,34,75)        -61.5116         calculate D2E/DX2 analytically  !
 ! D215  D(32,20,34,76)         58.2337         calculate D2E/DX2 analytically  !
 ! D216  D(33,20,34,74)         60.2064         calculate D2E/DX2 analytically  !
 ! D217  D(33,20,34,75)       -179.301          calculate D2E/DX2 analytically  !
 ! D218  D(33,20,34,76)        -59.5557         calculate D2E/DX2 analytically  !
 ! D219  D(13,21,35,77)       -179.2499         calculate D2E/DX2 analytically  !
 ! D220  D(13,21,35,78)        -59.484          calculate D2E/DX2 analytically  !
 ! D221  D(13,21,35,79)         61.0355         calculate D2E/DX2 analytically  !
 ! D222  D(36,21,35,77)        -59.8912         calculate D2E/DX2 analytically  !
 ! D223  D(36,21,35,78)         59.8747         calculate D2E/DX2 analytically  !
 ! D224  D(36,21,35,79)       -179.6058         calculate D2E/DX2 analytically  !
 ! D225  D(37,21,35,77)         57.7538         calculate D2E/DX2 analytically  !
 ! D226  D(37,21,35,78)        177.5196         calculate D2E/DX2 analytically  !
 ! D227  D(37,21,35,79)        -61.9609         calculate D2E/DX2 analytically  !
 ! D228  D(13,21,36,80)        -60.6151         calculate D2E/DX2 analytically  !
 ! D229  D(13,21,36,81)         59.6281         calculate D2E/DX2 analytically  !
 ! D230  D(13,21,36,82)        179.5571         calculate D2E/DX2 analytically  !
 ! D231  D(35,21,36,80)        179.6073         calculate D2E/DX2 analytically  !
 ! D232  D(35,21,36,81)        -60.1495         calculate D2E/DX2 analytically  !
 ! D233  D(35,21,36,82)         59.7795         calculate D2E/DX2 analytically  !
 ! D234  D(37,21,36,80)         61.9643         calculate D2E/DX2 analytically  !
 ! D235  D(37,21,36,81)       -177.7925         calculate D2E/DX2 analytically  !
 ! D236  D(37,21,36,82)        -57.8635         calculate D2E/DX2 analytically  !
 ! D237  D(13,21,37,83)       -179.4919         calculate D2E/DX2 analytically  !
 ! D238  D(13,21,37,84)        -60.2168         calculate D2E/DX2 analytically  !
 ! D239  D(13,21,37,85)         61.2843         calculate D2E/DX2 analytically  !
 ! D240  D(35,21,37,83)        -58.077          calculate D2E/DX2 analytically  !
 ! D241  D(35,21,37,84)         61.1981         calculate D2E/DX2 analytically  !
 ! D242  D(35,21,37,85)       -177.3008         calculate D2E/DX2 analytically  !
 ! D243  D(36,21,37,83)         59.936          calculate D2E/DX2 analytically  !
 ! D244  D(36,21,37,84)        179.2111         calculate D2E/DX2 analytically  !
 ! D245  D(36,21,37,85)        -59.2877         calculate D2E/DX2 analytically  !
 ! D246  D(4,24,25,5)          -43.6881         calculate D2E/DX2 analytically  !
 ! D247  D(4,24,25,39)        -172.0364         calculate D2E/DX2 analytically  !
 ! D248  D(4,24,25,49)          68.1509         calculate D2E/DX2 analytically  !
 ! D249  D(38,24,25,5)          76.3576         calculate D2E/DX2 analytically  !
 ! D250  D(38,24,25,39)        -51.9906         calculate D2E/DX2 analytically  !
 ! D251  D(38,24,25,49)       -171.8033         calculate D2E/DX2 analytically  !
 ! D252  D(48,24,25,5)        -162.2841         calculate D2E/DX2 analytically  !
 ! D253  D(48,24,25,39)         69.3676         calculate D2E/DX2 analytically  !
 ! D254  D(48,24,25,49)        -50.4451         calculate D2E/DX2 analytically  !
 ! D255  D(4,24,38,40)         172.4714         calculate D2E/DX2 analytically  !
 ! D256  D(4,24,38,86)          51.5298         calculate D2E/DX2 analytically  !
 ! D257  D(4,24,38,87)         -64.0784         calculate D2E/DX2 analytically  !
 ! D258  D(25,24,38,40)         54.6421         calculate D2E/DX2 analytically  !
 ! D259  D(25,24,38,86)        -66.2996         calculate D2E/DX2 analytically  !
 ! D260  D(25,24,38,87)        178.0923         calculate D2E/DX2 analytically  !
 ! D261  D(48,24,38,40)        -66.634          calculate D2E/DX2 analytically  !
 ! D262  D(48,24,38,86)        172.4244         calculate D2E/DX2 analytically  !
 ! D263  D(48,24,38,87)         56.8163         calculate D2E/DX2 analytically  !
 ! D264  D(5,25,39,41)         -69.3378         calculate D2E/DX2 analytically  !
 ! D265  D(5,25,39,88)         170.934          calculate D2E/DX2 analytically  !
 ! D266  D(5,25,39,89)          56.8081         calculate D2E/DX2 analytically  !
 ! D267  D(24,25,39,41)         52.6076         calculate D2E/DX2 analytically  !
 ! D268  D(24,25,39,88)        -67.1207         calculate D2E/DX2 analytically  !
 ! D269  D(24,25,39,89)        178.7534         calculate D2E/DX2 analytically  !
 ! D270  D(49,25,39,41)        171.547          calculate D2E/DX2 analytically  !
 ! D271  D(49,25,39,88)         51.8187         calculate D2E/DX2 analytically  !
 ! D272  D(49,25,39,89)        -62.3071         calculate D2E/DX2 analytically  !
 ! D273  D(14,27,54,94)       -179.7837         calculate D2E/DX2 analytically  !
 ! D274  D(53,27,54,94)        -57.3787         calculate D2E/DX2 analytically  !
 ! D275  D(55,27,54,94)         58.6783         calculate D2E/DX2 analytically  !
 ! D276  D(24,38,40,41)        -56.9555         calculate D2E/DX2 analytically  !
 ! D277  D(24,38,40,90)       -179.644          calculate D2E/DX2 analytically  !
 ! D278  D(24,38,40,91)         63.7837         calculate D2E/DX2 analytically  !
 ! D279  D(86,38,40,41)         63.0636         calculate D2E/DX2 analytically  !
 ! D280  D(86,38,40,90)        -59.6249         calculate D2E/DX2 analytically  !
 ! D281  D(86,38,40,91)       -176.1973         calculate D2E/DX2 analytically  !
 ! D282  D(87,38,40,41)       -179.0655         calculate D2E/DX2 analytically  !
 ! D283  D(87,38,40,90)         58.246          calculate D2E/DX2 analytically  !
 ! D284  D(87,38,40,91)        -58.3263         calculate D2E/DX2 analytically  !
 ! D285  D(25,39,41,40)        -54.492          calculate D2E/DX2 analytically  !
 ! D286  D(25,39,41,92)       -176.8797         calculate D2E/DX2 analytically  !
 ! D287  D(25,39,41,93)         66.3868         calculate D2E/DX2 analytically  !
 ! D288  D(88,39,41,40)         63.6505         calculate D2E/DX2 analytically  !
 ! D289  D(88,39,41,92)        -58.7372         calculate D2E/DX2 analytically  !
 ! D290  D(88,39,41,93)       -175.4707         calculate D2E/DX2 analytically  !
 ! D291  D(89,39,41,40)       -179.9577         calculate D2E/DX2 analytically  !
 ! D292  D(89,39,41,92)         57.6545         calculate D2E/DX2 analytically  !
 ! D293  D(89,39,41,93)        -59.079          calculate D2E/DX2 analytically  !
 ! D294  D(38,40,41,39)         56.2075         calculate D2E/DX2 analytically  !
 ! D295  D(38,40,41,92)        178.0617         calculate D2E/DX2 analytically  !
 ! D296  D(38,40,41,93)        -65.1355         calculate D2E/DX2 analytically  !
 ! D297  D(90,40,41,39)        178.441          calculate D2E/DX2 analytically  !
 ! D298  D(90,40,41,92)        -59.7048         calculate D2E/DX2 analytically  !
 ! D299  D(90,40,41,93)         57.098          calculate D2E/DX2 analytically  !
 ! D300  D(91,40,41,39)        -64.5761         calculate D2E/DX2 analytically  !
 ! D301  D(91,40,41,92)         57.2781         calculate D2E/DX2 analytically  !
 ! D302  D(91,40,41,93)        174.0809         calculate D2E/DX2 analytically  !
 ! D303  D(27,54,94,103)       164.9666         calculate D2E/DX2 analytically  !
 ! D304  D(27,54,94,104)      -158.7493         calculate D2E/DX2 analytically  !
 ! D305  D(54,94,103,95)      -151.0182         calculate D2E/DX2 analytically  !
 ! D306  D(104,94,103,95)       88.4171         calculate D2E/DX2 analytically  !
 ! D307  D(54,94,104,97)      -119.8781         calculate D2E/DX2 analytically  !
 ! D308  D(103,94,104,97)      -86.9396         calculate D2E/DX2 analytically  !
 ! D309  D(1,95,96,97)          84.3529         calculate D2E/DX2 analytically  !
 ! D310  D(1,95,96,98)         -96.8942         calculate D2E/DX2 analytically  !
 ! D311  D(99,95,96,97)       -146.9466         calculate D2E/DX2 analytically  !
 ! D312  D(99,95,96,98)         31.8063         calculate D2E/DX2 analytically  !
 ! D313  D(103,95,96,97)       -19.6255         calculate D2E/DX2 analytically  !
 ! D314  D(103,95,96,98)       159.1274         calculate D2E/DX2 analytically  !
 ! D315  D(1,95,99,106)        -53.8035         calculate D2E/DX2 analytically  !
 ! D316  D(1,95,99,107)       -172.542          calculate D2E/DX2 analytically  !
 ! D317  D(1,95,99,108)         67.6811         calculate D2E/DX2 analytically  !
 ! D318  D(96,95,99,106)       176.115          calculate D2E/DX2 analytically  !
 ! D319  D(96,95,99,107)        57.3765         calculate D2E/DX2 analytically  !
 ! D320  D(96,95,99,108)       -62.4004         calculate D2E/DX2 analytically  !
 ! D321  D(103,95,99,106)       49.7451         calculate D2E/DX2 analytically  !
 ! D322  D(103,95,99,107)      -68.9933         calculate D2E/DX2 analytically  !
 ! D323  D(103,95,99,108)      171.2298         calculate D2E/DX2 analytically  !
 ! D324  D(1,95,103,94)       -174.0876         calculate D2E/DX2 analytically  !
 ! D325  D(96,95,103,94)       -57.7872         calculate D2E/DX2 analytically  !
 ! D326  D(99,95,103,94)        72.273          calculate D2E/DX2 analytically  !
 ! D327  D(95,96,97,100)      -179.007          calculate D2E/DX2 analytically  !
 ! D328  D(95,96,97,104)         1.2832         calculate D2E/DX2 analytically  !
 ! D329  D(98,96,97,100)         2.1673         calculate D2E/DX2 analytically  !
 ! D330  D(98,96,97,104)      -177.5424         calculate D2E/DX2 analytically  !
 ! D331  D(95,96,98,101)       178.1405         calculate D2E/DX2 analytically  !
 ! D332  D(95,96,98,105)        -2.1036         calculate D2E/DX2 analytically  !
 ! D333  D(97,96,98,101)        -3.0764         calculate D2E/DX2 analytically  !
 ! D334  D(97,96,98,105)       176.6795         calculate D2E/DX2 analytically  !
 ! D335  D(96,97,100,102)        0.365          calculate D2E/DX2 analytically  !
 ! D336  D(96,97,100,109)      179.8392         calculate D2E/DX2 analytically  !
 ! D337  D(104,97,100,102)    -179.929          calculate D2E/DX2 analytically  !
 ! D338  D(104,97,100,109)      -0.4548         calculate D2E/DX2 analytically  !
 ! D339  D(96,97,104,94)        77.3344         calculate D2E/DX2 analytically  !
 ! D340  D(100,97,104,94)     -102.3813         calculate D2E/DX2 analytically  !
 ! D341  D(96,98,101,102)        1.4769         calculate D2E/DX2 analytically  !
 ! D342  D(96,98,101,110)     -179.3286         calculate D2E/DX2 analytically  !
 ! D343  D(105,98,101,102)    -178.281          calculate D2E/DX2 analytically  !
 ! D344  D(105,98,101,110)       0.9135         calculate D2E/DX2 analytically  !
 ! D345  D(97,100,102,101)      -2.0524         calculate D2E/DX2 analytically  !
 ! D346  D(97,100,102,111)     179.2004         calculate D2E/DX2 analytically  !
 ! D347  D(109,100,102,101)    178.4767         calculate D2E/DX2 analytically  !
 ! D348  D(109,100,102,111)     -0.2705         calculate D2E/DX2 analytically  !
 ! D349  D(98,101,102,100)       1.1485         calculate D2E/DX2 analytically  !
 ! D350  D(98,101,102,111)     179.8968         calculate D2E/DX2 analytically  !
 ! D351  D(110,101,102,100)   -178.0438         calculate D2E/DX2 analytically  !
 ! D352  D(110,101,102,111)      0.7046         calculate D2E/DX2 analytically  !
 --------------------------------------------------------------------------------
 Trust Radius=3.00D-01 FncErr=5.00D-06 GrdErr=5.00D-06 EigMax=2.50D+02 EigMin=1.00D-04
 Number of steps in this run=    666 maximum allowed number of steps=    666.
 GradGradGradGradGradGradGradGradGradGradGradGradGradGradGradGradGradGrad

 Symmetry turned off by external request.
 Stoichiometry    C44H61ClCoN2O2(1-)
 Framework group  C1[X(C44H61ClCoN2O2)]
 Deg. of freedom   327
 Full point group                 C1      NOp   1
                          Input orientation:                          
 ---------------------------------------------------------------------
 Center     Atomic      Atomic             Coordinates (Angstroms)
 Number     Number       Type             X           Y           Z
 ---------------------------------------------------------------------
      1         27           0        0.053818    0.357150   -1.404235
      2          8           0        1.279383   -1.099281   -1.610719
      3          8           0       -1.315058   -0.958035   -1.329802
      4          7           0        1.326155    1.612346   -2.016781
      5          7           0       -1.155520    1.801400   -1.399525
      6          6           0        3.329848   -2.271274   -1.747709
      7          6           0       -3.438806   -1.925410   -0.971719
      8          6           0        2.552388   -1.064644   -1.853662
      9          6           0       -2.589462   -0.784924   -1.152838
     10          6           0        3.233719    0.129461   -2.254744
     11          6           0       -3.195908    0.512103   -1.123233
     12          6           0        5.349224   -1.054115   -2.517373
     13          6           0       -5.396214   -0.440505   -0.662571
     14          6           0        2.686220   -3.563980   -1.235219
     15          6           0       -2.853301   -3.340558   -1.046545
     16          6           0        4.671730   -2.217774   -2.084271
     17          6           0       -4.789872   -1.711425   -0.726183
     18          6           0        4.607688    0.104056   -2.586637
     19          6           0       -4.575772    0.649348   -0.882101
     20          6           0        6.832978   -1.136640   -2.870505
     21          6           0       -6.878215   -0.238490   -0.338998
     22          6           0        2.553297    1.377548   -2.370987
     23          6           0       -2.442000    1.718944   -1.269475
     24          6           0        0.736077    2.918989   -2.346038
     25          6           0       -0.453350    3.102989   -1.408769
     26          6           0        1.507575   -3.983671   -2.126164
     27          6           0        2.188770   -3.345068    0.201536
     28          6           0        3.678279   -4.728158   -1.207209
     29          6           0       -1.764957   -3.540161    0.021588
     30          6           0       -3.916257   -4.416294   -0.815209
     31          6           0       -2.261902   -3.574645   -2.445431
     32          6           0        7.391627    0.216024   -3.306760
     33          6           0        7.627470   -1.618362   -1.648977
     34          6           0        7.030841   -2.136500   -4.017929
     35          6           0       -7.551778    0.554135   -1.466526
     36          6           0       -7.002658    0.554382    0.969917
     37          6           0       -7.621911   -1.562564   -0.171565
     38          6           0        0.301570    2.945483   -3.812194
     39          6           0       -1.276163    4.331611   -1.771667
     40          6           0       -0.478636    4.210242   -4.143379
     41          6           0       -1.694974    4.351857   -3.236706
     42          1           0        5.254383   -3.130172   -2.008729
     43          1           0       -5.417975   -2.579199   -0.567332
     44          1           0        5.060082    1.040882   -2.900273
     45          1           0       -4.980294    1.659549   -0.845397
     46          1           0        3.125542    2.205780   -2.802392
     47          1           0       -3.026199    2.641541   -1.243820
     48          1           0        1.470342    3.715148   -2.165357
     49          1           0       -0.058995    3.222539   -0.390974
     50          1           0        1.084846   -4.928080   -1.765280
     51          1           0        0.721129   -3.229838   -2.124849
     52          1           0        1.833476   -4.143228   -3.160192
     53          1           0        3.016222   -3.078600    0.868521
     54          1           0        1.443699   -2.549906    0.250751
     55          1           0        1.731768   -4.261300    0.592384
     56          1           0        3.172939   -5.623351   -0.832245
     57          1           0        4.068457   -4.965324   -2.202414
     58          1           0        4.530117   -4.534953   -0.547543
     59          1           0       -1.352860   -4.553497   -0.048332
     60          1           0       -0.945581   -2.829234   -0.093303
     61          1           0       -2.183042   -3.426989    1.028345
     62          1           0       -3.451481   -5.404403   -0.887620
     63          1           0       -4.372677   -4.342318    0.177009
     64          1           0       -4.717639   -4.377312   -1.559917
     65          1           0       -3.040625   -3.499398   -3.212323
     66          1           0       -1.481388   -2.849406   -2.677289
     67          1           0       -1.828227   -4.578668   -2.512523
     68          1           0        8.453374    0.118425   -3.552718
     69          1           0        6.882652    0.601718   -4.195702
     70          1           0        7.305303    0.968560   -2.516716
     71          1           0        8.693822   -1.690971   -1.888196
     72          1           0        7.519494   -0.925805   -0.808008
     73          1           0        7.298174   -2.605772   -1.312188
     74          1           0        6.679930   -3.137496   -3.749903
     75          1           0        6.488380   -1.822000   -4.915423
     76          1           0        8.091406   -2.218119   -4.279020
     77          1           0       -8.611271    0.718221   -1.242410
     78          1           0       -7.089176    1.535507   -1.605979
     79          1           0       -7.490849    0.017834   -2.419058
     80          1           0       -6.538473    0.016988    1.803520
     81          1           0       -6.519589    1.533563    0.895927
     82          1           0       -8.055365    0.721321    1.223190
     83          1           0       -8.676090   -1.369122    0.049074
     84          1           0       -7.583191   -2.173016   -1.079366
     85          1           0       -7.219591   -2.159356    0.652846
     86          1           0       -0.324091    2.061764   -4.001343
     87          1           0        1.186874    2.844699   -4.448649
     88          1           0       -0.641126    5.202214   -1.566517
     89          1           0       -2.135201    4.431360   -1.100992
     90          1           0       -0.780340    4.196868   -5.195317
     91          1           0        0.173312    5.085432   -4.017501
     92          1           0       -2.233661    5.279183   -3.454861
     93          1           0       -2.396347    3.532011   -3.439700
     94         17           0        0.676579   -2.517289    3.932153
     95          6           0        0.383410    0.325014    0.605968
     96          6           0       -0.769311    0.821661    1.386941
     97          6           0       -1.821908   -0.052156    1.708999
     98          6           0       -0.864650    2.142758    1.858906
     99          6           0        1.720804    0.944332    0.920616
    100          6           0       -2.934158    0.375095    2.423111
    101          6           0       -1.984574    2.579601    2.557584
    102          6           0       -3.032934    1.702199    2.834366
    103          1           0        0.424296   -0.766519    0.670369
    104          1           0       -1.750769   -1.087949    1.389860
    105          1           0       -0.050704    2.839273    1.681557
    106          1           0        2.524231    0.473430    0.348743
    107          1           0        1.961175    0.809738    1.985645
    108          1           0        1.754925    2.019422    0.717677
    109          1           0       -3.729689   -0.329522    2.651185
    110          1           0       -2.035226    3.609182    2.900744
    111          1           0       -3.905940    2.045289    3.381710
 ---------------------------------------------------------------------
 Rotational constants (GHZ):           0.0827187           0.0394523           0.0342401
 General basis read from cards:  (5D, 7F)
 ======================================================================================================
                                       Pseudopotential Parameters
 ======================================================================================================
  Center     Atomic      Valence      Angular      Power
  Number     Number     Electrons     Momentum     of R      Exponent        Coefficient   SO-Coeffient
 ======================================================================================================
    1         27           17
                                      F and up 
                                                     2        1.0000000        0.00000000    0.00000000
                                      S - F
                                                     2       23.6600000      283.96056600    0.00000000
                                                     2       10.6100000       47.15684600    0.00000000
                                      P - F
                                                     2       25.0400000      182.21223600    0.00000000
                                                     2       10.4400000       35.23335200    0.00000000
                                      D - F
                                                     2       29.5400000      -26.47533300    0.00000000
[...]
 00000526,-0.00002553,-0.00000296,-0.00000989,-0.00007450,-0.00000245,0
 .00001012,0.00007331,0.00002886,0.00000408,0.00001044,0.00000952,-0.00
 000705,0.00000161,0.00002016,-0.00002694,0.00000604,-0.00000205,-0.000
 00122,-0.00000537,0.00000967,-0.00000881,0.00000228,0.00000382,0.00000
 321,0.00000048,0.00000394,0.00000739,-0.00000178,-0.00000483,0.0000029
 6,0.00000270,-0.00001268,-0.00000403,-0.00000609,-0.00000170,0.0000033
 9,0.00000548,-0.00001786,-0.00000219,-0.00000494,0.00000048,0.00000021
 ,0.00000651,0.00000545,0.00000024,0.00000386,0.00000901,-0.00000458,-0
 .00004067,-0.00001365,0.00000851,-0.00000552,-0.00001480,-0.00001828,0
 .00001862,-0.00004080,-0.00001643,0.00000066,-0.00000094,0.00000104,-0
 .00000541,-0.00000097,-0.00000385,-0.00000203,0.00000039,-0.00000324,0
 .00000286,-0.00000564,-0.00000315,0.00000190,-0.00000087,-0.00000224,0
 .00000046,-0.00000042,0.00000128,0.00000189,-0.00000186,0.00000212,0.0
 0000173,0.00000163,-0.00000241,0.00000227,0.00000109,0.00000259,-0.000
 00468,-0.00000612,0.00000467,-0.00000672,-0.00001370,0.00000071,-0.000
 00253,0.00000285,0.00000025,0.00000639,-0.00000136,0.00000491,0.000029
 15,-0.00001526,-0.00001258,0.00000544,-0.00000436,0.00000067,-0.000015
 86,0.00001124,0.00000609,0.00000195,-0.00000078,-0.00000061,-0.0000006
 8,0.00000091,0.00000366,0.00000155,0.00000255,-0.00000110,-0.00000666,
 0.00000274,0.00000097,0.00000583,0.00000115,-0.00000327,-0.00001413,-0
 .00000741,-0.00000954,0.00000616,0.00000620,-0.00000325,-0.00002170,-0
 .00002541,0.00000030,-0.00000087,-0.00000155,-0.00000029,0.00000189,0.
 00000304,0.00000111,0.00000079,-0.00000152,-0.00000076,0.00000097,-0.0
 0000077,0.00000068,-0.00000071,0.00000705,-0.00000102,0.00000325,-0.00
 000294,0.00000130,-0.00000041,-0.00000149,0.00000038,0.00000127,-0.000
 00123,-0.00000038,0.00000028,0.00000036,0.00000078,-0.00000164,-0.0000
 0253,-0.00000206,-0.00000408,0.00000608,0.00000159,0.00000140,-0.00000
 155,-0.00000172,-0.00000040,-0.00000202,0.00000016,-0.00000004,0.00000
 028,0.00000049,-0.00000110,-0.00000019,0.00000023,-0.00000165,-0.00000
 037,-0.00000076,-0.00000074,0.00000240,0.00000347,0.00000125,-0.000003
 72,-0.00000112,0.00000058,0.00000043,-0.00000052,-0.00000048,0.0000003
 5,-0.00000050,0.00000037,-0.00000018,-0.00000115,0.00000229,-0.0000004
 3,0.00000062,0.00000039,-0.00000115,0.00000011,-0.00000041,0.00000025,
 0.00000050,0.00000059,0.00000032,0.00000032,-0.00000001,-0.00000005,-0
 .00000087,0.00000054,-0.00000087,-0.00000155,-0.00000270,0.00000148,-0
 .00000228,0.00000123,0.00000015,-0.00000158,0.00000055,0.00000128,0.00
 000054,0.00000203,0.00000392,-0.00000272,-0.00000941,0.00000074,-0.000
 00716,-0.00000058,0.00000310,0.00000272,-0.00000208,-0.00000091,0.0000
 0018,0.00000048,0.00000125,0.00000075,0.00000051,-0.00000036,-0.000001
 30,0.00000006,0.00000172,0.00000404,-0.00000203,0.00000181,-0.00000557
 ,0.00000251,0.00000918,-0.00000403,-0.00001809,-0.00001025,0.00004076,
 -0.00000337,0.00000278,0.00000111,-0.00000112,0.00000207,0.00000051,0.
 00000016,0.00000022,-0.00000623,-0.00000006,-0.00000006,0.00000211,-0.
 00000245,0.00000193,-0.00000550,-0.00019495,-0.00077981,0.00016909,0.0
 0561186,-0.00138888,0.00458680,-0.00031652,0.00041538,-0.00074108,-0.0
 0011697,-0.01557096,-0.00184351,-0.00011364,-0.00003150,-0.00000535,0.
 00344644,-0.00059035,0.00523917,0.01136600,-0.08734111,-0.06823718,0.0
 0071526,0.00705924,0.00455273,0.00017649,-0.00006647,-0.00038783,-0.00
 052473,0.00019593,-0.00080310,-0.00219590,0.00150186,-0.00287753,0.000
 04130,0.00001273,0.00000362,-0.00000675,0.00000222,0.00001201,0.000002
 56,0.00002343,0.00002301,0.00013980,0.00026413,0.00024374,-0.01609346,
 0.09561395,0.06284867,0.00005185,-0.00001548,-0.00005315,-0.00004107,0
 .00001480,0.00001869,0.00004817,0.00000349,0.00006946,-0.00000015,0.00
 000158,-0.00000222,-0.00003317,-0.00003520,0.00005201,-0.00000773,0.00
 000269,0.00000198,0.00000441,-0.00000357,0.00000619,0.00004013,0.00000
 164,-0.00000469,-0.00007541,0.00000309,-0.00001516,-0.00000998,-0.0000
 0058,-0.00000028,0.00001407,-0.00001578,0.00002351,-0.00000353,0.00000
 361,0.00000047,-0.00000189,0.00000736,0.00001533,-0.00000214,-0.000001
 85,-0.00000117,-0.00000028,-0.00001088,-0.00000501,-0.00000141,0.00000
 267,-0.00000136,0.00000354,-0.00000115,-0.00000212,0.00000836,0.000000
 28,-0.00000159,-0.00000506,0.00001612,0.00005678,0.00000342,-0.0000004
 8,-0.00000060,-0.00001674,-0.00000880,-0.00000127,0.00000657,-0.000010
 80,0.00000162,-0.00001571,0.00002224,-0.00000543,0.00001856,0.00000415
 ,0.00000925,0.00000244,0.00004196,0.00000236,0.00000079,0.00000056,-0.
 00000149,0.00000325,-0.00000027,0.00000124,0.00000173,0.00000026,-0.00
 000004,-0.00000893,0.00001028,0.00000434,-0.00000341,0.00000113,0.0000
 0268,-0.00000147,0.00000434,-0.00000296,-0.00000146,0.00000152,0.00000
 052,-0.00000194,-0.00000072,0.00000186,-0.00000160,-0.00000051,-0.0000
 0120,-0.00000179,0.00000264,-0.00000895,0.00003669,-0.00003708,-0.0000
 4238,-0.00000038,-0.00000663,-0.00000209,-0.00001517,-0.00000189,-0.00
 000009,-0.00000828,0.00000930,0.00000913,0.00000168,0.00000469,-0.0000
 0074,0.00000437,-0.00000778,-0.00000493,-0.00000213,0.00000028,0.00000
 022,0.00000154,0.00000055,-0.00000109,-0.00000089,-0.00000162,0.000000
 45,-0.00000449,0.00001176,-0.00000071,-0.00000342,-0.00000128,0.000003
 18,0.00000229,-0.00000181,-0.00000121,-0.00000460,-0.00000333,0.000003
 09,0.00003729,0.00002862,-0.00005655,0.00000091,0.00000168,0.00000074,
 -0.00000131,-0.00000222,-0.00000102,-0.00000086,0.00000018,0.00000129,
 -0.00000089,-0.00000026,-0.00000060,-0.00000011,-0.00000366,0.00000074
 ,-0.00000045,0.00000209,-0.00000060,-0.00000004,0.00000052,-0.00000002
 ,-0.00000098,0.00000049,0.00000040,-0.00000034,0.00000018,0.00000030,0
 .00000050,0.00000727,0.00000213,0.00000919,-0.00000563,-0.00000458,-0.
 00000347,-0.00000237,0.00000398,0.00000040,0.00000191,-0.00000006,0.00
 000124,-0.00000132,-0.00000084,0.00000249,0.00000079,0.,0.00000119,0.0
 0000124,0.00000209,0.00000134,-0.00000250,-0.00000332,-0.00000101,0.00
 000348,0.00000323,-0.00000078,-0.00000042,0.00000016,-0.00000015,0.000
 00005,-0.00000036,0.00000044,0.00000016,-0.00000025,-0.00000096,0.0000
 0034,-0.00000070,0.00000016,-0.00000021,-0.00000011,0.00000045,0.00000
 033,-0.00000005,0.00000023,-0.00000058,0.00000007,0.00000041,0.0000000
 1,-0.00000019,-0.00000129,0.00000086,0.00000101,0.00000346,-0.00000234
 ,0.00000002,-0.00000083,0.00000150,0.00000040,-0.00000014,0.00000101,0
 .00000316,0.00001486,-0.00003222,0.00003556,-0.00020645,-0.00000439,-0
 .00013769,0.00001138,0.00001256,0.00001299,0.00000185,-0.00000011,0.00
 000008,-0.00000048,0.00000257,0.00000263,-0.00000003,0.00000039,0.0000
 0075,0.00000152,0.00000022,-0.00000076,-0.00000012,-0.00000036,0.00000
 665,0.00000016,-0.00000497,0.00000099,0.00000281,-0.00000100,0.0000000
 6,0.00000061,-0.00000138,0.00000184,-0.00000101,-0.00000133,-0.0000005
 4,0.00000238,-0.00000294,0.00000570,-0.00000141,0.00000029,0.00000053,
 -0.00000790,0.00000923,-0.00000931,-0.00007981,0.00011701,-0.00055733,
 -0.00007672,-0.00037454,-0.00059995,0.00302487,-0.00034450,0.00202359,
 -0.00052307,-0.00489794,0.00234186,-0.00004485,-0.00002725,0.00012187,
 0.00122352,-0.00220976,0.00009138,-0.01371291,0.01057005,0.01150294,-0
 .23061677,0.06740781,0.12043433,-0.00001688,0.00009470,0.00004688,-0.0
 0007280,-0.00017456,0.00012631,-0.00089202,0.00048194,0.00076880,-0.00
 002909,0.00000676,-0.00000230,0.00001096,0.00000520,-0.00000304,-0.000
 00576,0.00002889,-0.00001599,-0.00028498,0.00068517,-0.00176428,0.0003
 1431,0.00068833,-0.00196387,0.24193809,-0.00005327,0.00000328,0.000048
 50,0.00003058,-0.00001058,-0.00000907,-0.00009317,0.00000851,-0.000105
 89,-0.00000573,-0.00000261,0.00000560,0.00003443,-0.00000257,0.0000048
 5,0.00000703,0.00000193,-0.00000189,-0.00001507,-0.00001151,0.00000701
 ,-0.00003184,-0.00000186,0.00000522,0.00015816,-0.00000373,0.00002242,
 0.00000616,0.00000091,-0.00000097,0.00001444,0.00003623,-0.00000471,0.
 00000046,-0.00000056,0.00000031,0.00000255,0.00001907,-0.00000279,-0.0
 0000107,0.00000091,0.00000063,0.00000702,0.00000173,0.00001073,0.00000
 219,-0.00000494,-0.00000106,0.00001798,-0.00001593,-0.00000424,-0.0000
 0219,-0.00000040,0.00000123,-0.00001827,-0.00001152,-0.00003020,-0.000
 00216,-0.00000204,0.00000148,0.00000385,0.00000221,0.00000446,-0.00000
 194,0.00001053,-0.00000389,-0.00004025,-0.00002671,0.00000761,0.000007
 47,-0.00000319,0.00000313,-0.00001529,-0.00001683,-0.00001072,-0.00000
 084,0.00000171,0.00000170,-0.00000095,0.00000177,-0.00000170,0.0000011
 0,-0.00000061,-0.00000229,0.00001924,-0.00002395,-0.00000796,-0.000000
 37,0.00000140,-0.00000302,-0.00000109,-0.00000377,0.00000052,0.0000000
 2,0.00000076,-0.00000047,0.00000029,-0.00000042,-0.00000035,0.00000212
 ,0.00000041,-0.00000105,-0.00000399,0.00000074,0.00000402,-0.00001731,
 -0.00000640,-0.00001590,-0.00000397,0.00000383,-0.00000106,-0.00000232
 ,0.00000092,0.00000011,0.00000434,0.00000350,0.00000643,-0.00000049,0.
 00000137,-0.00000016,0.00000002,-0.00000215,-0.00000037,0.00000079,0.0
 0000027,0.00000004,-0.00000202,-0.00000248,-0.00000058,0.00000025,-0.0
 0000011,-0.00000026,0.00000545,0.00000175,-0.00000114,0.00000298,0.000
 00146,-0.00000009,-0.00000249,0.00000129,-0.00000099,0.00000073,0.0000
 0263,-0.00000033,0.00001305,0.00001170,-0.00000828,0.00000043,-0.00000
 048,0.00000085,0.00000061,0.00000133,0.00000212,0.00000012,-0.00000045
 ,-0.00000115,0.00000155,-0.00000009,-0.00000098,-0.00000292,0.00000161
 ,0.00000084,0.00000002,-0.00000110,-0.00000019,-0.00000041,-0.00000128
 ,0.00000074,0.00000045,-0.00000076,-0.00000022,0.00000058,0.00000032,0
 .00000084,-0.00001037,-0.00002007,-0.00001516,-0.00002701,0.00000969,0
 .00001666,0.00001149,0.00000351,-0.00001750,0.00000089,-0.00000134,0.0
 0000017,-0.00000052,-0.00000113,-0.00000067,-0.00000238,-0.00000175,-0
 .00000078,-0.00000185,0.00000014,-0.00000407,-0.00000067,0.00000264,0.
 00000287,0.00000047,-0.00000139,0.00000123,0.00000126,-0.00000013,-0.0
 0000051,-0.00000040,-0.00000007,-0.00000023,-0.00000008,0.00000039,0.0
 0000080,0.00000146,-0.00000019,0.00000004,-0.00000105,0.00000007,-0.00
 000010,0.00000014,0.00000100,0.,-0.00000019,-0.00000051,0.00000033,0.0
 0000025,0.00000015,-0.00000009,0.00000081,-0.00000011,-0.00000064,-0.0
 0000190,0.00000159,-0.00000162,0.00000172,0.00000101,0.00000075,0.0000
 0047,0.00000042,0.00000205,-0.00000657,0.00000027,-0.00001579,-0.00000
 250,-0.00001877,-0.00000184,-0.00000383,-0.00000244,-0.00000547,-0.000
 00050,-0.00000183,-0.00000022,-0.00000053,-0.00000105,0.00000184,0.000
 00116,-0.00000238,0.00000122,0.00000272,-0.00000114,0.00000081,0.00000
 065,-0.00000022,-0.00000024,-0.00000060,0.00000066,-0.00000048,-0.0000
 0024,0.00000123,-0.00000181,-0.00000061,0.00000034,-0.00000110,0.00000
 127,0.00000059,-0.00000027,0.00000024,0.00000063,0.00000144,0.00000002
 ,-0.00000170,0.00000020,0.00000846,-0.00001061,0.00001370,0.00018346,0
 .00014678,0.00028598,-0.00040561,-0.00107490,0.00020654,-0.00147729,-0
 .00504213,-0.00249413,-0.00376171,-0.00160959,-0.00069579,0.00000890,0
 .00000202,-0.00002924,0.02510546,-0.00403648,-0.01495891,-0.01665931,0
 .00946325,0.01066071,0.06734680,-0.08361069,-0.04870229,-0.00006193,0.
 00001673,0.00000856,0.00131718,-0.00032297,-0.00088361,-0.00095589,0.0
 0031381,0.00049757,0.00002595,0.00003196,0.00000147,0.00000476,-0.0000
 0774,0.00000323,0.00002626,0.00003758,-0.00001062,0.00017583,0.0012569
 0,0.00134355,0.00119904,0.00076907,0.00076392,-0.07207061,0.08374383,0
 .00007245,0.00003778,-0.00018800,0.00003789,-0.00001622,0.00001089,-0.
 00005733,-0.00001219,0.00007939,-0.00003902,-0.00003100,0.00001674,-0.
 00002677,-0.00004080,0.00001882,0.00000733,0.00000483,-0.00000765,-0.0
 0001715,0.00001962,-0.00001729,-0.00004206,-0.00000609,-0.00000148,0.0
 0001591,-0.00001071,-0.00005279,0.00001319,-0.00001109,-0.00000295,0.0
 0003092,-0.00003549,-0.00001455,0.00000575,-0.00001115,0.00000143,-0.0
 0000834,-0.00000447,0.00001855,0.00000184,0.00000705,0.00000044,0.0000
 0255,0.00000071,0.00000530,0.00001157,-0.00000275,-0.00000096,0.000006
 42,0.00000296,0.00000693,-0.00001466,-0.00000084,0.00000389,0.00000020
 ,-0.00002849,0.00001484,-0.00000698,-0.00000199,0.00000212,0.00000542,
 -0.00000827,-0.00000553,-0.00000822,0.00003759,-0.00001000,0.00005320,
 0.00004913,-0.00002263,0.00001321,-0.00001888,-0.00000021,0.00000924,0
 .00003125,0.00003894,-0.00000067,-0.00000140,0.00000259,-0.00000214,-0
 .00000039,-0.00000138,-0.00000206,-0.00000056,-0.00000016,0.00000293,-
 0.00000450,-0.00000402,0.00000333,-0.00000064,-0.00000353,-0.00000026,
 -0.00000051,0.00000215,0.00000184,-0.00000210,0.00000008,0.00000328,0.
 00000033,-0.00000380,0.00000510,0.00000130,0.00000168,-0.00000309,0.00
 000079,0.00000724,-0.00002086,-0.00001435,-0.00005076,-0.00000218,0.00
 000506,0.00000312,0.00000250,0.00000544,0.00000274,0.00001539,-0.00000
 532,-0.00000789,-0.00000010,-0.00000349,-0.00000137,-0.00000386,0.0000
 0483,0.00000207,0.00000285,-0.00000048,-0.00000025,-0.00000313,-0.0000
 0062,0.00000003,0.00000120,0.00000273,-0.00000087,-0.00001902,0.000018
 80,-0.00002544,0.00000668,0.00000145,-0.00000387,-0.00000767,0.0000053
 9,-0.00000224,0.00000128,0.00000575,-0.00000278,-0.00002199,0.00000033
 ,-0.00005380,-0.00000090,-0.00000270,0.00000016,0.00000223,0.00000394,
 0.00000175,0.00000085,-0.00000074,-0.00000154,0.00000104,-0.00000049,0
 .00000018,0.00000068,0.00000247,-0.00000144,-0.00000045,-0.00000227,0.
 00000117,-0.00000021,-0.00000186,0.00000062,0.00000087,-0.00000044,-0.
 00000044,-0.00000002,0.,-0.00000015,-0.00000259,-0.00000753,-0.0000038
 4,-0.00001104,0.00000389,0.00000445,0.00000536,0.00000117,-0.00000461,
 -0.00000059,-0.00000088,-0.00000018,-0.00000017,-0.00000044,0.00000046
 ,-0.00000179,-0.00000042,-0.00000059,-0.00000137,-0.00000030,-0.000001
 61,-0.00000028,0.00000224,0.00000268,-0.00000015,-0.00000184,-0.000001
 18,0.00000146,0.00000044,-0.00000054,0.00000005,0.00000019,-0.00000026
 ,0.00000002,0.00000017,0.00000024,0.00000268,-0.00000046,0.00000127,-0
 .00000017,-0.00000002,-0.00000015,-0.00000035,0.00000021,-0.00000004,-
 0.00000010,0.00000018,0.00000044,-0.00000046,0.00000021,-0.00000079,0.
 00000160,-0.00000132,-0.00000180,-0.00000309,0.00000067,-0.00000235,0.
 00000121,0.00000112,-0.00000238,0.00000081,0.00000173,0.00000181,-0.00
 003801,-0.00003383,-0.00002482,0.00003870,0.00000764,-0.00000618,0.000
 00459,0.00000176,0.00000906,-0.00000140,-0.00000153,-0.00000018,0.0000
 0014,0.00000138,0.00000187,-0.00000007,-0.00000066,-0.00000102,0.00000
 107,-0.00000088,0.00000176,-0.00000078,0.00000070,-0.00000164,-0.00000
 147,0.00000452,-0.00000303,-0.00000400,0.00000245,0.00000096,-0.000001
 94,0.00000223,-0.00000269,0.00000039,0.00000088,0.00000017,-0.00000238
 ,0.00000357,-0.00000407,0.00000115,-0.00000198,-0.00000068,0.00000650,
 -0.00000760,0.00000618,-0.00030622,0.00017494,-0.00068190,-0.00071252,
 0.00036864,-0.00063886,0.00206457,-0.00310926,0.00540027,0.00295680,-0
 .00032400,0.00546696,0.00002008,-0.00002433,-0.00000177,0.00746902,-0.
 00044427,-0.00131847,0.00308514,-0.00367344,-0.00022415,0.12090386,-0.
 04892535,-0.11033574,0.00004017,0.00009412,-0.00001223,0.00047295,-0.0
 0004519,-0.00006674,0.00028049,-0.00026748,0.00007833,-0.00000113,-0.0
 0002967,-0.00000621,0.00000435,0.00001577,0.00000835,-0.00000917,-0.00
 002796,0.00001979,-0.00194580,0.00106031,-0.00273563,-0.00180258,0.001
 10307,-0.00268330,-0.13254355,0.05411012,0.10801055\\-0.00000030,0.000
 00018,-0.00000506,-0.00000262,-0.00000046,-0.00000099,0.00000142,-0.00
 000016,0.00000078,0.00000087,0.00000032,0.00000094,0.,0.00000063,0.000
 00170,0.00000050,-0.00000124,-0.00000110,-0.00000016,-0.00000017,0.000
 00123,0.00000134,0.00000105,-0.00000121,0.00000001,-0.00000119,0.00000
 177,0.00000067,0.00000084,-0.00000167,0.00000095,0.00000087,0.00000132
 ,-0.00000048,-0.00000043,-0.00000158,0.00000036,-0.00000007,0.00000102
 ,-0.00000001,0.00000112,-0.00000189,-0.00000085,0.00000016,-0.00000007
 ,-0.00000015,0.00000124,-0.00000176,-0.00000015,0.00000003,0.00000041,
 -0.00000124,-0.00000026,-0.00000048,-0.00000069,-0.00000040,0.00000140
 ,0.,0.00000052,-0.00000176,0.00000106,-0.00000113,0.00000109,-0.000001
 18,-0.00000021,0.00000018,-0.00000091,0.00000002,0.00000105,-0.0000004
 5,0.00000101,-0.00000094,-0.00000005,0.00000038,0.00000101,0.00000043,
 0.00000007,-0.00000045,-0.00000127,0.00000067,-0.00000147,-0.00000020,
 -0.00000050,-0.00000128,0.00000019,0.00000058,-0.00000227,0.00000074,-
 0.00000063,0.00000056,0.00000041,-0.00000011,0.00000014,0.00000013,0.0
 0000049,-0.00000118,-0.00000056,0.00000036,-0.00000214,-0.00000072,0.0
 0000034,-0.00000196,-0.00000039,-0.00000006,0.00000165,-0.00000033,-0.
 00000059,0.00000239,-0.00000002,-0.00000012,0.00000159,-0.00000050,-0.
 00000013,0.00000055,0.00000016,0.00000002,0.00000126,-0.00000104,0.000
 00049,0.00000088,-0.00000111,0.00000039,0.00000104,-0.00000011,0.00000
 032,-0.00000190,-0.00000012,-0.00000016,0.00000068,-0.00000014,0.00000
 086,-0.00000095,-0.00000015,-0.00000014,0.00000162,-0.00000044,0.00000
 039,-0.00000057,-0.00000003,-0.00000021,0.00000116,-0.00000034,0.00000
 023,0.00000084,-0.00000002,-0.00000052,0.00000063,-0.00000057,0.000000
 13,-0.00000094,-0.00000019,0.00000041,-0.00000069,-0.00000037,0.000000
 49,-0.00000193,0.00000042,-0.00000058,-0.00000119,0.00000113,-0.000001
 13,0.00000088,0.00000063,0.00000024,-0.00000061,0.00000038,0.00000041,
 -0.00000216,-0.00000017,0.00000039,-0.00000216,0.,-0.00000010,-0.00000
 195,0.00000096,0.00000007,-0.00000111,-0.00000059,-0.00000174,0.000000
 40,0.00000080,-0.00000041,-0.00000031,-0.00000021,0.00000051,-0.000000
 30,0.00000055,-0.00000039,-0.00000011,-0.00000029,-0.00000002,0.000000
 02,-0.00000054,0.00000029,-0.00000033,-0.00000073,-0.00000005,0.000000
 10,-0.00000053,0.00000088,-0.00000044,-0.00000086,0.00000064,-0.000001
 89,-0.00000105,0.00000079,-0.00000180,-0.00000034,0.00000028,-0.000001
 41,-0.00000001,0.00000026,-0.00000247,-0.00000002,0.00000005,-0.000001
 88,-0.00000009,0.00000032,-0.00000214,-0.00000055,0.00000102,-0.000002
 33,-0.00000086,0.00000087,-0.00000169,-0.00000059,0.00000079,-0.000002
 36,-0.00000023,-0.00000008,0.00000206,0.,0.00000036,0.00000196,-0.0000
 0038,0.00000036,0.00000207,0.00000060,-0.00000039,0.00000122,0.0000009
 7,-0.00000049,0.00000195,0.00000077,-0.00000051,0.00000197,0.00000048,
 -0.00000042,0.00000172,-0.00000001,0.00000004,0.00000143,0.00000027,-0
 .00000037,0.00000125,-0.00000056,0.00000080,0.00000062,-0.00000091,0.0
 0000071,0.00000048,-0.00000020,0.00000022,0.00000123,-0.00000052,-0.00
 000006,0.00000154,-0.00000089,0.00000083,0.00000131,-0.00000071,0.0000
 0071,0.00000100,-0.00000033,0.00000016,0.00000170,-0.00000037,0.000000
 95,0.00000147,0.00000220,0.00000007,0.00000061,0.00000175,0.00000645,0
 .00000167,0.00000104,-0.00000177,0.00000178,-0.00000002,-0.00000146,0.
 00000078,0.00000160,0.00000014,0.00000183,-0.00000094,-0.00000480,0.00
 000029,0.00000076,-0.00000168,-0.00000052,0.00000080,-0.00000126,0.000
 00141,0.00000033,0.00000058,0.00000130,-0.00000095,-0.00000452,-0.0000
 0454,0.00000106,-0.00000110,-0.00000018,0.00000016,-0.00000118,0.00000
 045,0.00000059,0.00000100,-0.00000044,0.00000110,-0.00000027,0.0000011
 9,0.00000036,0.00000052,0.00000060,0.00000113,-0.00000063,0.00000118,0
 .00000082,-0.00000092,0.00000109,0.00000138,-0.00000112,0.00000111\\\@
 The archive entry for this job was punched.


 STEINBACH'S GUIDELINES FOR SYSTEMS PROGRAMMING:
 NEVER TEST FOR AN ERROR CONDITION YOU DON'T KNOW HOW
 TO HANDLE.
 Job cpu time:      11 days 19 hours 13 minutes  4.0 seconds.
 Elapsed time:       0 days  2 hours 14 minutes 29.5 seconds.
 File lengths (MBytes):  RWF=  20437 Int=      0 D2E=      0 Chk=    600 Scr=      1
 Normal termination of Gaussian 16 at Fri Nov  1 15:34:09 2024.
2078214.75user 1253.25system 4:34:30elapsed 12625%CPU (0avgtext+0avgdata 64462572maxresident)k
0inputs+3594280outputs (17747major+11256051minor)pagefaults 0swaps
