 Entering Gaussian System, Link 0=g16
 Initial command:
 /common/software/install/migrated/gaussian/g16.c01.avx2/g16/l1.exe "/tmp/quach062/41472259/Gau-2413538.inp" -scrdir="/tmp/quach062/41472259/"
 Entering Link 1 = /common/software/install/migrated/gaussian/g16.c01.avx2/g16/l1.exe PID=   2413539.
  
 Copyright (c) 1988-2019, Gaussian, Inc.  All Rights Reserved.
  
 This is part of the Gaussian(R) 16 program.  It is based on
 the Gaussian(R) 09 system (copyright 2009, Gaussian, Inc.),
 the Gaussian(R) 03 system (copyright 2003, Gaussian, Inc.),
 the Gaussian(R) 98 system (copyright 1998, Gaussian, Inc.),
 the Gaussian(R) 94 system (copyright 1995, Gaussian, Inc.),
 the Gaussian 92(TM) system (copyright 1992, Gaussian, Inc.),
 the Gaussian 90(TM) system (copyright 1990, Gaussian, Inc.),
 the Gaussian 88(TM) system (copyright 1988, Gaussian, Inc.),
 the Gaussian 86(TM) system (copyright 1986, Carnegie Mellon
 University), and the Gaussian 82(TM) system (copyright 1983,
 Carnegie Mellon University). Gaussian is a federally registered
 trademark of Gaussian, Inc.
  
 This software contains proprietary and confidential information,
 including trade secrets, belonging to Gaussian, Inc.
  
 This software is provided under written license and may be
 used, copied, transmitted, or stored only in accord with that
 written license.
  
 The following legend is applicable only to US Government
 contracts under FAR:
  
                    RESTRICTED RIGHTS LEGEND
  
 Use, reproduction and disclosure by the US Government is
 subject to restrictions as set forth in subparagraphs (a)
 and (c) of the Commercial Computer Software - Restricted
 Rights clause in FAR 52.227-19.
  
 Gaussian, Inc.
 340 Quinnipiac St., Bldg. 40, Wallingford CT 06492
  
  
 ---------------------------------------------------------------
 Warning -- This program may not be used in any manner that
 competes with the business of Gaussian, Inc. or will provide
 assistance to any competitor of Gaussian, Inc.  The licensee
 of this program is prohibited from giving any competitor of
 Gaussian, Inc. access to this program.  By using this program,
 the user acknowledges that Gaussian, Inc. is engaged in the
 business of creating and licensing software in the field of
 computational chemistry and represents and warrants to the
 licensee that it is not a competitor of Gaussian, Inc. and that
 it will not use this program in any manner prohibited above.
 ---------------------------------------------------------------
  

 Cite this work as:
 Gaussian 16, Revision C.01,
 M. J. Frisch, G. W. Trucks, H. B. Schlegel, G. E. Scuseria, 
 M. A. Robb, J. R. Cheeseman, G. Scalmani, V. Barone, 
 G. A. Petersson, H. Nakatsuji, X. Li, M. Caricato, A. V. Marenich, 
 J. Bloino, B. G. Janesko, R. Gomperts, B. Mennucci, H. P. Hratchian, 
 J. V. Ortiz, A. F. Izmaylov, J. L. Sonnenberg, D. Williams-Young, 
 F. Ding, F. Lipparini, F. Egidi, J. Goings, B. Peng, A. Petrone, 
 T. Henderson, D. Ranasinghe, V. G. Zakrzewski, J. Gao, N. Rega, 
 G. Zheng, W. Liang, M. Hada, M. Ehara, K. Toyota, R. Fukuda, 
 J. Hasegawa, M. Ishida, T. Nakajima, Y. Honda, O. Kitao, H. Nakai, 
 T. Vreven, K. Throssell, J. A. Montgomery, Jr., J. E. Peralta, 
 F. Ogliaro, M. J. Bearpark, J. J. Heyd, E. N. Brothers, K. N. Kudin, 
 V. N. Staroverov, T. A. Keith, R. Kobayashi, J. Normand, 
 K. Raghavachari, A. P. Rendell, J. C. Burant, S. S. Iyengar, 
 J. Tomasi, M. Cossi, J. M. Millam, M. Klene, C. Adamo, R. Cammi, 
 J. W. Ochterski, R. L. Martin, K. Morokuma, O. Farkas, 
 J. B. Foresman, and D. J. Fox, Gaussian, Inc., Wallingford CT, 2019.
 
 ******************************************
 Gaussian 16:  ES64L-G16RevC.01  3-Jul-2019
                23-Sep-2025 
 ******************************************
 %chk=Li_2DMF_CA_v2.chk
 %lindaworkers=in-cn0088
 %nprocshared=128
 Will use up to  128 processors via shared memory.
 %mem=59800MB
 SetLPE:  input flags=" -workerwait 900 -opt "Tsnet.Node.lindarsharg: ssh " "
 SetLPE:    new flags=" -workerwait 900 -opt "Tsnet.Node.lindarsharg: ssh " -opt 'Tsnet.Node.lindarsharg: ssh'  -nodelist 'in-cn0088' -env GAUSS_MDEF=7838105600 -env GAUSS_EXEDIR="/common/software/install/migrated/gaussian/g16.c01.avx2/g16/bsd:/common/software/install/migrated/gaussian/g16.c01.avx2/g16/local:/common/software/install/migrated/gaussian/g16.c01.avx2/g16/extras:/common/software/install/migrated/gaussian/g16.c01.avx2/g16""
 Will use up to    1 processors via Linda.
 ----------------------------------------------------------------------
 # freq # pop=hirshfeld # m06l/6-311++G(d,p)/auto # nosymm integral=gri
 d=ultrafine # scf=(tight,intrep,xqc) # SCRF=(SMD,Solvent=n,n-DiMethylF
 ormamide)
 ----------------------------------------------------------------------
 1/10=4,30=1,38=1/1,3;
 2/12=2,15=1,17=6,18=5,40=1/2;
 3/5=4,6=6,7=1111,11=2,25=1,30=1,70=32201,71=2,72=148,74=-53,75=-5,82=28,140=1/1,2,3;
 4//1;
 5/5=2,8=3,13=1,17=20,32=2,38=5,53=148,98=1/2,8;
 8/6=4,10=90,11=11/1;
 11/6=1,8=1,9=11,15=111,16=1,31=1/1,2,10;
 10/6=1,31=1/2;
 6/7=2,8=2,9=2,10=2,28=1,79=1/1;
 7/8=1,10=1,25=1,30=1/1,2,3,16;
 1/10=4,30=1/3;
 99//99;
 -------------
 Input: TS.out
 -------------
 Symbolic Z-matrix:
 Charge =  1 Multiplicity = 1
 C                    -2.42112   1.2507   -5.79752 
 C                    -4.58306   0.80287  -4.68647 
 C                    -2.6919   -0.68262  -4.34097 
 C                     1.46377   0.20322  -5.56037 
 C                     1.4104   -0.79976  -7.8152 
 C                     1.04052  -2.17938  -5.85137 
 H                    -2.3755    2.27546  -5.41718 
 H                    -2.87724   1.27389  -6.79246 
 H                    -1.41322   0.84472  -5.87182 
 H                    -5.06746   0.07183  -4.03774 
 H                    -5.12779   0.85375  -5.63447 
 H                    -4.63232   1.7871   -4.20767 
 H                    -3.43462  -1.23047  -3.73617 
 H                     0.92806   1.04506  -6.00482 
 H                     2.5262    0.46574  -5.49748 
 H                     1.07765   0.02928  -4.55346 
 H                     0.65902  -0.09582  -8.18648 
 H                     1.276    -1.75824  -8.31729 
 H                     2.402    -0.40778  -8.06162 
 Li                   -0.10572  -1.68003  -3.16977 
 N                    -3.20681   0.41673  -4.91203 
 N                     1.27359  -0.97337  -6.38454 
 O                    -1.52831  -1.07244  -4.4672 
 O                     0.94733  -2.43301  -4.64919 
 H                     0.94139  -2.9655   -6.61937 
 

 GradGradGradGradGradGradGradGradGradGradGradGradGradGradGradGradGradGrad
 Berny optimization.
 Initialization pass.
 Trust Radius=3.00D-01 FncErr=1.00D-07 GrdErr=1.00D-07 EigMax=2.50D+02 EigMin=1.00D-04
 Number of steps in this run=      2 maximum allowed number of steps=      2.
 GradGradGradGradGradGradGradGradGradGradGradGradGradGradGradGradGradGrad

                          Input orientation:                          
 ---------------------------------------------------------------------
 Center     Atomic      Atomic             Coordinates (Angstroms)
 Number     Number       Type             X           Y           Z
 ---------------------------------------------------------------------
      1          6           0       -2.421123    1.250704   -5.797516
      2          6           0       -4.583063    0.802874   -4.686465
      3          6           0       -2.691896   -0.682619   -4.340974
      4          6           0        1.463770    0.203219   -5.560367
      5          6           0        1.410404   -0.799763   -7.815199
      6          6           0        1.040525   -2.179380   -5.851373
      7          1           0       -2.375498    2.275462   -5.417181
      8          1           0       -2.877236    1.273885   -6.792463
      9          1           0       -1.413218    0.844719   -5.871817
     10          1           0       -5.067461    0.071831   -4.037740
     11          1           0       -5.127787    0.853753   -5.634468
     12          1           0       -4.632320    1.787104   -4.207673
     13          1           0       -3.434621   -1.230469   -3.736166
     14          1           0        0.928062    1.045059   -6.004822
     15          1           0        2.526197    0.465735   -5.497481
     16          1           0        1.077652    0.029279   -4.553459
     17          1           0        0.659022   -0.095819   -8.186477
     18          1           0        1.275995   -1.758241   -8.317294
     19          1           0        2.402000   -0.407784   -8.061620
     20          3           0       -0.105715   -1.680027   -3.169770
     21          7           0       -3.206814    0.416730   -4.912034
     22          7           0        1.273594   -0.973366   -6.384541
     23          8           0       -1.528308   -1.072443   -4.467205
     24          8           0        0.947329   -2.433013   -4.649192
     25          1           0        0.941387   -2.965497   -6.619371
 ---------------------------------------------------------------------
                    Distance matrix (angstroms):
                    1          2          3          4          5
     1  C    0.000000
     2  C    2.471633   0.000000
     3  C    2.435687   2.429520   0.000000
     4  C    4.030615   6.139013   4.420542   0.000000
     5  C    4.791248   6.948314   5.377065   2.468418   0.000000
     6  C    4.873539   6.471135   4.295645   2.437334   2.428326
     7  H    1.094013   2.752418   3.163633   4.365166   5.435122
     8  H    1.094758   2.750804   3.141983   4.637749   4.871331
     9  H    1.089136   3.384483   2.512222   2.964048   3.801828
    10  H    3.389640   1.090830   2.510867   6.707655   7.549279
    11  H    2.740472   1.094542   3.157076   6.623995   7.087852
    12  H    2.775737   1.095617   3.143652   6.442110   7.498042
    13  H    3.381207   2.521204   1.103437   5.420093   6.348093
    14  H    3.361890   5.671791   4.342506   1.092345   2.629351
    15  H    5.018184   7.163308   5.466692   1.096184   2.866757
    16  H    3.909090   5.714878   3.842062   1.092340   3.381861
    17  H    4.124021   6.366882   5.134285   2.762878   1.094513
    18  H    5.391819   7.353284   5.719462   3.388692   1.090342
    19  H    5.580257   7.851654   6.313994   2.740414   1.094364
    20  Li   4.566766   5.339645   3.009132   3.424157   4.965228
    21  N    1.448068   1.447083   1.341573   4.720199   5.588106
    22  N    4.352243   6.351293   4.470549   1.449062   1.447632
    23  O    2.822031   3.591158   1.233626   3.431450   4.463121
    24  O    5.122000   6.407620   4.050041   2.836665   3.592429
    25  H    5.455114   6.961055   4.858330   3.381588   2.518012
                    6          7          8          9         10
     6  C    0.000000
     7  H    5.630573   0.000000
     8  H    5.306556   1.773781   0.000000
     9  H    3.894412   1.783172   1.781887   0.000000
    10  H    6.757567   3.742394   3.718940   4.161092   0.000000
    11  H    6.877137   3.105409   2.565627   3.722155   1.778927
    12  H    7.114486   2.606655   3.166205   3.744340   1.777748
    13  H    5.039987   4.029777   3.990416   3.599094   2.110237
    14  H    3.230047   3.573895   3.892690   2.353597   6.384581
    15  H    3.054357   5.225722   5.614906   3.975267   7.742716
    16  H    2.562057   4.208990   4.712040   2.933845   6.166862
    17  H    3.152694   4.743447   4.040357   3.245988   7.073382
    18  H    2.512682   6.165616   5.363602   4.470752   7.867857
    19  H    3.142826   6.084189   5.684110   4.573827   8.497911
    20  Li   2.958752   5.084158   5.434228   3.922367   5.333039
    21  N    5.065771   2.097890   2.092690   2.078784   2.084551
    22  N    1.339052   4.980617   4.737713   3.284399   6.841702
    23  O    3.120919   3.581711   3.568149   2.379431   3.744250
    24  O    1.232175   5.813839   5.741254   4.220251   6.544144
    25  H    1.103462   6.317803   5.708257   4.541007   7.210855
                   11         12         13         14         15
    11  H    0.000000
    12  H    1.775493   0.000000
    13  H    3.288517   3.280632   0.000000
    14  H    6.070179   5.890520   5.418287   0.000000
    15  H    7.665037   7.392833   6.442879   1.773992   0.000000
    16  H    6.352622   5.984421   4.755580   1.777819   1.783243
    17  H    6.395436   6.882919   6.152285   2.476611   3.321503
    18  H    7.418119   8.022882   6.592054   3.650627   3.802686
    19  H    8.011257   8.315774   7.311122   2.917818   2.711691
    20  Li   6.141334   5.795549   3.406541   4.065994   4.116976
    21  N    2.098342   2.099075   2.036621   4.322752   5.763034
    22  N    6.699153   6.873047   5.408075   2.082695   2.104020
    23  O    4.246055   4.228387   2.047784   3.589127   4.457182
    24  O    6.977151   7.009765   4.634783   3.732973   3.408102
    25  H    7.238203   7.711661   5.520203   4.057389   3.942539
                   16         17         18         19         20
    16  H    0.000000
    17  H    3.659197   0.000000
    18  H    4.171453   1.778037   0.000000
    19  H    3.775197   1.775073   1.776792   0.000000
    20  Li   2.497335   5.316191   5.330314   5.642467   0.000000
    21  N    4.316867   5.092089   6.035054   6.485253   4.129006
    22  N    2.096796   2.096368   2.086041   2.098994   3.568840
    23  O    2.830593   4.423934   4.812236   5.367393   2.018977
    24  O    2.467596   4.249468   3.744103   4.226380   1.965853
    25  H    3.640775   3.281860   2.110064   3.279538   3.827349
                   21         22         23         24         25
    21  N    0.000000
    22  N    4.916777   0.000000
    23  O    2.287551   3.396564   0.000000
    24  O    5.044504   2.290951   2.830733   0.000000
    25  H    5.618009   2.033247   3.783499   2.040877   0.000000
 Symmetry turned off by external request.
 Stoichiometry    C6H14LiN2O2(1+)
 Framework group  C1[X(C6H14LiN2O2)]
 Deg. of freedom    69
 Full point group                 C1      NOp   1
 Rotational constants (GHZ):           1.7700824           0.5555991           0.4702110
 Standard basis: 6-311++G(d,p) (5D, 7F)
   340 basis functions,   522 primitive gaussians,   351 cartesian basis functions
    41 alpha electrons       41 beta electrons
       nuclear repulsion energy       582.9993362987 Hartrees.
 NAtoms=   25 NActive=   25 NUniq=   25 SFac= 1.00D+00 NAtFMM=   60 NAOKFM=F Big=F
 Integral buffers will be    131072 words long.
 Raffenetti 2 integral format.
 Two-electron integral symmetry is turned off.
 Standard density basis: Auto (5D, 7F)
  1521 Density fitting functions
 Force inversion solution in PCM.
 ------------------------------------------------------------------------------
 Polarizable Continuum Model (PCM)
 =================================
 Model                : PCM.
 Atomic radii         : SMD-Coulomb.
 Polarization charges : Total charges.
 Charge compensation  : None.
 Solution method      : Matrix inversion.
 Cavity type          : VdW (van der Waals Surface) (Alpha=1.000).
 Cavity algorithm     : GePol (No added spheres)
                        Default sphere list used, NSphG=   25.
                        Lebedev-Laikov grids with approx.  5.0 points / Ang**2.
                        Smoothing algorithm: York/Karplus (Gamma=1.0000).
                        Polarization charges: spherical gaussians, with
                                              point-specific exponents (IZeta= 3).
                        Self-potential: point-specific (ISelfS= 7).
                        Self-field    : sphere-specific E.n sum rule (ISelfD= 2).
 1st derivatives      : Analytical E(r).r(x)/FMM algorithm (CHGder, D1EAlg=3).
                        Cavity 1st derivative terms included.
 2nd derivatives      : Analytical E(r).r(xy)/FMM algorithm (CHGder, D2EAlg=3).
                        Cavity 2nd derivative terms included.
 Solvent              : n,n-DiMethylFormamide, Eps=  37.219000 Eps(inf)=   2.046330
 ------------------------------------------------------------------------------
 ------------------------------------------------------------------------------
 Atomic radii for non-electrostatic terms: SMD-CDS.
 ------------------------------------------------------------------------------
 Nuclear repulsion after PCM non-electrostatic terms =      583.0010792007 Hartrees.
 One-electron integrals computed using PRISM.
 NBasis=   340 RedAO= T EigKep=  3.68D-05  NBF=   340
 NBsUse=   340 1.00D-06 EigRej= -1.00D+00 NBFU=   340
 NBasis=      340 NBas6D=      351 NTT=       57970   NTT6D=    61776
 NDBShl=      253 NDBF=       1521 NDBF6D=     1756  NNucDB=        0
 IDenFi=        2 ISolve=        0 FullAP=F BlkAPC=T NucTyp=        0
 TolInv= 1.00D-06 TolIt=  1.00D-10 IR12=0.
 FoFCou: FMM=F IPFlag=           0 FMFlag=           0 FMFlg1=           0
         NFxFlg=           0 DoJE=F BraDBF=T KetDBF=T FulRan=T
         wScrn=  0.000000 ICntrl=       600 IOpCl=  3 I1Cent=           6 NGrid=           0
         NMat0=    1 NMatS0=   1756 NMatT0=    0 NMatD0=    1 NMtDS0=    0 NMtDT0=    0
 Symmetry not used in FoFCou.
 DBF EigKep=  1.01D-06 EigRej=  9.11D-07
 NDBF=   1521  NBFD=  1521
 NRank=  1477 NBFDU=  1477
 S*AI*S=  16.3549881439    
 ExpMin= 7.40D-03 ExpMax= 8.59D+03 ExpMxC= 1.30D+03 IAcc=3 IRadAn=         5 AccDes= 0.00D+00
 Harris functional with IExCor= 1009 and IRadAn=       5 diagonalized for initial guess.
 HarFok:  IExCor= 1009 AccDes= 0.00D+00 IRadAn=         5 IDoV= 1 UseB2=F ITyADJ=14
 ICtDFT=  3500011 ScaDFX=  1.000000  1.000000  1.000000  1.000000
 FoFCou: FMM=F IPFlag=           0 FMFlag=      100000 FMFlg1=           0
         NFxFlg=           0 DoJE=T BraDBF=F KetDBF=T FulRan=T
         wScrn=  0.000000 ICntrl=       500 IOpCl=  0 I1Cent=   200000004 NGrid=           0
         NMat0=    1 NMatS0=      1 NMatT0=    0 NMatD0=    1 NMtDS0=    0 NMtDT0=    0
 Symmetry not used in FoFCou.
 Requested convergence on RMS density matrix=1.00D-08 within  32 cycles.
 Requested convergence on MAX density matrix=1.00D-06.
 Requested convergence on             energy=1.00D-06.
 No special actions if energy rises.
 FoFCou: FMM=F IPFlag=           0 FMFlag=      100000 FMFlg1=           0
         NFxFlg=           0 DoJE=T BraDBF=T KetDBF=F FulRan=T
         wScrn=  0.000000 ICntrl=       500 IOpCl=  0 I1Cent=           5 NGrid=           0
         NMat0=    1 NMatS0=      1 NMatT0=    0 NMatD0=    1 NMtDS0=    0 NMtDT0=    0
 Symmetry not used in FoFCou.
 Inv3:  Mode=1 IEnd=    11395803.
 Iteration    1 A*A^-1 deviation from unit magnitude is 3.55D-15 for    625.
 Iteration    1 A*A^-1 deviation from orthogonality  is 3.39D-15 for    982    221.
 Iteration    1 A^-1*A deviation from unit magnitude is 3.44D-15 for   1476.
 Iteration    1 A^-1*A deviation from orthogonality  is 3.05D-15 for   1554    465.
 Error on total polarization charges =  0.03349
 SCF Done:  E(RM06L) =  -504.603890774     A.U. after   14 cycles
            NFock= 14  Conv=0.42D-08     -V/T= 2.0044
 SMD-CDS (non-electrostatic) energy       (kcal/mol) =       1.09
 (included in total energy above)
 QCSCF skips out because SCF is already converged.
 DoSCS=F DFT=T ScalE2(SS,OS)=  1.000000  1.000000
 Range of M.O.s used for correlation:     1   340
 NBasis=   340 NAE=    41 NBE=    41 NFC=     0 NFV=     0
 NROrb=    340 NOA=    41 NOB=    41 NVA=   299 NVB=   299

 **** Warning!!: The largest alpha MO coefficient is  0.44227002D+02

 Symmetrizing basis deriv contribution to polar:
 IMax=3 JMax=2 DiffMx= 0.00D+00
 G2DrvN: will do    26 centers at a time, making    1 passes.
 Calling FoFCou, ICntrl=  3507 FMM=F I1Cent=   4 AccDes= 0.00D+00.
 NEqPCM:  Using equilibrium solvation (IEInf=0, Eps=  37.2190, EpsInf=   2.0463)
 G2PCM: DoFxE=T DoFxN=T DoGrad=T DoDP/DQ/DG/TGxP=FFFF NFrqRd=   0 IEInf=0 SqF1=F DoCFld=F IF1Alg=4.
 G2DrvN: will do    26 centers at a time, making    1 passes.
 Calling FoFCou, ICntrl=  3507 FMM=F I1Cent=1004 AccDes= 0.00D+00.
 End of G2Drv F.D. properties file   721 does not exist.
 End of G2Drv F.D. properties file   722 does not exist.
 End of G2Drv F.D. properties file   788 does not exist.
          IDoAtm=1111111111111111111111111
 NEqPCM:  Using equilibrium solvation (IEInf=0, Eps=  37.2190, EpsInf=   2.0463)
          Differentiating once with respect to electric field.
                with respect to dipole field.
          Differentiating once with respect to nuclear coordinates.
 FoFCou: FMM=F IPFlag=           0 FMFlag=      100000 FMFlg1=           0
         NFxFlg=           0 DoJE=F BraDBF=T KetDBF=F FulRan=T
         wScrn=  0.000000 ICntrl=       500 IOpCl=  0 I1Cent=           5 NGrid=           0
         NMat0=   78 NMatS0=     78 NMatT0=    0 NMatD0=   78 NMtDS0=    0 NMtDT0=    0
 Symmetry not used in FoFCou.
          There are    78 degrees of freedom in the 1st order CPHF.  IDoFFX=6 NUNeed=     3.
     75 vectors produced by pass  0 Test12= 1.57D-14 1.28D-09 XBig12= 1.12D+02 4.72D+00.
 AX will form    75 AO Fock derivatives at one time.
     75 vectors produced by pass  1 Test12= 1.57D-14 1.28D-09 XBig12= 2.03D+01 1.04D+00.
     75 vectors produced by pass  2 Test12= 1.57D-14 1.28D-09 XBig12= 1.98D-01 5.15D-02.
     75 vectors produced by pass  3 Test12= 1.57D-14 1.28D-09 XBig12= 1.81D-03 3.26D-03.
     75 vectors produced by pass  4 Test12= 1.57D-14 1.28D-09 XBig12= 7.63D-06 1.80D-04.
     72 vectors produced by pass  5 Test12= 1.57D-14 1.28D-09 XBig12= 1.74D-08 9.61D-06.
     18 vectors produced by pass  6 Test12= 1.57D-14 1.28D-09 XBig12= 2.12D-11 2.98D-07.
      3 vectors produced by pass  7 Test12= 1.57D-14 1.28D-09 XBig12= 2.17D-14 9.84D-09.
 InvSVY:  IOpt=1 It=  1 EMax= 8.88D-15
 Solved reduced A of dimension   468 with    78 vectors.
 Isotropic polarizability for W=    0.000000      129.78 Bohr**3.
 End of Minotr F.D. properties file   721 does not exist.
 End of Minotr F.D. properties file   722 does not exist.
 End of Minotr F.D. properties file   788 does not exist.

 **********************************************************************

            Population analysis using the SCF Density.

 **********************************************************************

 Alpha  occ. eigenvalues --  -18.95874 -18.95652 -14.22516 -14.22390 -10.15425
 Alpha  occ. eigenvalues --  -10.15227 -10.08277 -10.08231 -10.08216 -10.07931
 Alpha  occ. eigenvalues --   -1.92486  -1.02635  -1.02320  -0.92304  -0.92236
 Alpha  occ. eigenvalues --   -0.69610  -0.69462  -0.67206  -0.67174  -0.54146
 Alpha  occ. eigenvalues --   -0.53998  -0.48415  -0.48330  -0.46021  -0.45302
 Alpha  occ. eigenvalues --   -0.44547  -0.44129  -0.39421  -0.38866  -0.37266
 Alpha  occ. eigenvalues --   -0.37105  -0.36947  -0.36819  -0.36500  -0.35748
 Alpha  occ. eigenvalues --   -0.35498  -0.35062  -0.25416  -0.25150  -0.23494
 Alpha  occ. eigenvalues --   -0.23280
 Alpha virt. eigenvalues --   -0.02691  -0.02334  -0.01641  -0.00444  -0.00245
 Alpha virt. eigenvalues --    0.00125   0.01761   0.02080   0.02370   0.02586
 Alpha virt. eigenvalues --    0.02731   0.03505   0.03550   0.03922   0.03979
 Alpha virt. eigenvalues --    0.04329   0.04960   0.05606   0.05897   0.06028
 Alpha virt. eigenvalues --    0.06838   0.07550   0.07915   0.07960   0.08683
 Alpha virt. eigenvalues --    0.09288   0.09844   0.10213   0.10772   0.11070
 Alpha virt. eigenvalues --    0.11292   0.12077   0.12389   0.12488   0.12825
 Alpha virt. eigenvalues --    0.13199   0.13361   0.13879   0.14198   0.14424
 Alpha virt. eigenvalues --    0.14968   0.15127   0.15209   0.15793   0.16334
 Alpha virt. eigenvalues --    0.16739   0.17041   0.17422   0.17833   0.18166
 Alpha virt. eigenvalues --    0.18331   0.18637   0.18802   0.19582   0.19688
 Alpha virt. eigenvalues --    0.20412   0.20718   0.21073   0.21823   0.22136
 Alpha virt. eigenvalues --    0.22775   0.23486   0.23910   0.24592   0.25288
 Alpha virt. eigenvalues --    0.25684   0.26421   0.27624   0.28255   0.28669
 Alpha virt. eigenvalues --    0.29070   0.29238   0.30735   0.30879   0.31824
 Alpha virt. eigenvalues --    0.32032   0.33822   0.34266   0.34587   0.34937
 Alpha virt. eigenvalues --    0.35973   0.37185   0.37533   0.38838   0.39274
 Alpha virt. eigenvalues --    0.40405   0.40758   0.43200   0.44882   0.46152
 Alpha virt. eigenvalues --    0.46491   0.48051   0.48377   0.49012   0.49459
 Alpha virt. eigenvalues --    0.51468   0.52349   0.53670   0.54688   0.55665
 Alpha virt. eigenvalues --    0.56056   0.57096   0.57985   0.59199   0.59455
 Alpha virt. eigenvalues --    0.60103   0.60456   0.61892   0.62793   0.63331
 Alpha virt. eigenvalues --    0.63675   0.64058   0.65171   0.65717   0.66278
 Alpha virt. eigenvalues --    0.67350   0.68033   0.68382   0.69917   0.71673
 Alpha virt. eigenvalues --    0.72053   0.72765   0.73575   0.74458   0.74847
 Alpha virt. eigenvalues --    0.75987   0.78098   0.78957   0.80515   0.81865
 Alpha virt. eigenvalues --    0.86370   0.86713   0.87439   0.90052   0.92296
 Alpha virt. eigenvalues --    0.94136   0.96464   0.98784   1.01298   1.02332
 Alpha virt. eigenvalues --    1.03434   1.04787   1.07388   1.10200   1.12155
 Alpha virt. eigenvalues --    1.13831   1.15660   1.17891   1.20255   1.22209
 Alpha virt. eigenvalues --    1.24354   1.26567   1.30683   1.32076   1.34052
 Alpha virt. eigenvalues --    1.35215   1.36219   1.39937   1.41839   1.43094
 Alpha virt. eigenvalues --    1.43862   1.44838   1.45104   1.45992   1.47433
 Alpha virt. eigenvalues --    1.51064   1.53816   1.54679   1.54898   1.55714
 Alpha virt. eigenvalues --    1.57071   1.57548   1.57984   1.58251   1.58838
 Alpha virt. eigenvalues --    1.62226   1.66668   1.67954   1.68790   1.69638
 Alpha virt. eigenvalues --    1.71008   1.72015   1.72342   1.74065   1.74795
 Alpha virt. eigenvalues --    1.76665   1.78451   1.80301   1.82048   1.83417
 Alpha virt. eigenvalues --    1.84896   1.85878   1.86602   1.87179   1.93157
 Alpha virt. eigenvalues --    1.95695   2.00119   2.01714   2.06778   2.07332
 Alpha virt. eigenvalues --    2.08445   2.08974   2.09665   2.11308   2.17001
 Alpha virt. eigenvalues --    2.17875   2.20754   2.22263   2.26449   2.26815
 Alpha virt. eigenvalues --    2.38418   2.40144   2.41870   2.42798   2.44144
 Alpha virt. eigenvalues --    2.44403   2.45870   2.48539   2.49578   2.49823
 Alpha virt. eigenvalues --    2.51392   2.52625   2.54319   2.54544   2.55925
 Alpha virt. eigenvalues --    2.56843   2.58371   2.60256   2.60750   2.62158
 Alpha virt. eigenvalues --    2.62717   2.65815   2.67192   2.69040   2.70078
 Alpha virt. eigenvalues --    2.71128   2.72164   2.72542   2.73398   2.76108
 Alpha virt. eigenvalues --    2.86590   2.87551   2.90074   2.90724   2.92930
 Alpha virt. eigenvalues --    2.94150   2.95581   2.98231   2.98599   3.00392
 Alpha virt. eigenvalues --    3.02885   3.03783   3.08831   3.12140   3.36019
 Alpha virt. eigenvalues --    3.37509   3.42164   3.43179   3.51495   3.51887
 Alpha virt. eigenvalues --    3.60597   3.60976   3.67061   3.67795   3.73497
 Alpha virt. eigenvalues --    3.74830   3.75245   3.76276   3.76810   3.77365
 Alpha virt. eigenvalues --    3.80871   3.82418   3.83508   3.88191   3.89182
 Alpha virt. eigenvalues --    4.07351   4.08712   4.10554   4.12960   4.95574
 Alpha virt. eigenvalues --    4.95731   5.04372   5.06525   5.19134   5.21226
 Alpha virt. eigenvalues --    5.31335   5.35129   5.91036   5.94007  24.02833
 Alpha virt. eigenvalues --   24.04053  24.06429  24.07050  24.08201  24.09142
 Alpha virt. eigenvalues --   35.71755  35.73030  50.26530  50.27447
          Condensed to atoms (all electrons):
               1          2          3          4          5          6
     1  C    5.133616  -0.061616  -0.030130   0.001942   0.004960   0.000040
     2  C   -0.061616   4.972630  -0.046498  -0.000950  -0.000314   0.000704
     3  C   -0.030130  -0.046498   4.958650   0.009077  -0.001379  -0.005065
     4  C    0.001942  -0.000950   0.009077   5.090887  -0.088194  -0.145263
     5  C    0.004960  -0.000314  -0.001379  -0.088194   4.988232  -0.039941
     6  C    0.000040   0.000704  -0.005065  -0.145263  -0.039941   4.894936
     7  H    0.381326   0.012645  -0.009552   0.001703  -0.001470   0.000826
     8  H    0.414782   0.005865   0.000365   0.008656   0.001308  -0.002428
     9  H    0.123672  -0.009181  -0.063275  -0.054515  -0.005797   0.008977
    10  H    0.001247   0.408259   0.064099   0.000340  -0.000000   0.000181
    11  H    0.015692   0.396422  -0.015392   0.001111  -0.000094  -0.000356
    12  H    0.004131   0.403363  -0.025912  -0.001666   0.000060   0.000285
    13  H    0.021207   0.001730   0.465847  -0.000125   0.000448  -0.001883
    14  H    0.042980  -0.000036   0.010221   0.371117   0.026176  -0.007709
    15  H   -0.004784  -0.000097  -0.000643   0.447840  -0.018181  -0.020021
    16  H   -0.004716   0.003190   0.009203   0.267667   0.003566   0.062539
    17  H    0.016771  -0.000327   0.001878  -0.004893   0.379173  -0.011300
    18  H   -0.000459  -0.000050  -0.000245   0.004472   0.416707   0.026618
    19  H   -0.002179   0.000014  -0.000034   0.026239   0.406320  -0.012224
    20  Li   0.003649  -0.004338  -0.042421   0.017150   0.001830  -0.039354
    21  N    0.228458   0.189393   0.279716   0.003636  -0.001463   0.004195
    22  N   -0.018935  -0.000402  -0.003590   0.290563   0.186101   0.296101
    23  O    0.037246   0.012864   0.314110   0.006817   0.000957   0.011120
    24  O    0.003552   0.000019  -0.003280  -0.025124   0.024713   0.458623
    25  H   -0.002257  -0.000332  -0.003046  -0.021577   0.010317   0.436555
               7          8          9         10         11         12
     1  C    0.381326   0.414782   0.123672   0.001247   0.015692   0.004131
     2  C    0.012645   0.005865  -0.009181   0.408259   0.396422   0.403363
     3  C   -0.009552   0.000365  -0.063275   0.064099  -0.015392  -0.025912
     4  C    0.001703   0.008656  -0.054515   0.000340   0.001111  -0.001666
     5  C   -0.001470   0.001308  -0.005797  -0.000000  -0.000094   0.000060
     6  C    0.000826  -0.002428   0.008977   0.000181  -0.000356   0.000285
     7  H    0.603834  -0.063720  -0.032735   0.004849  -0.000937  -0.002501
     8  H   -0.063720   0.610627  -0.079132   0.004739   0.001719  -0.004962
     9  H   -0.032735  -0.079132   1.194530  -0.031861   0.004289   0.022071
    10  H    0.004849   0.004739  -0.031861   0.582640  -0.033666  -0.037412
    11  H   -0.000937   0.001719   0.004289  -0.033666   0.614386  -0.066509
    12  H   -0.002501  -0.004962   0.022071  -0.037412  -0.066509   0.612558
    13  H   -0.002456  -0.003927  -0.012003  -0.009775   0.000511   0.003631
    14  H   -0.002796   0.001403  -0.076219   0.000216  -0.000207  -0.000070
    15  H    0.000769   0.000774   0.001084   0.000023   0.000071  -0.000113
    16  H   -0.001886  -0.002848   0.036169   0.000190  -0.000398   0.000683
    17  H    0.000979  -0.002301  -0.025672   0.000010   0.000128  -0.000072
    18  H    0.000416  -0.000260  -0.000637  -0.000014  -0.000051   0.000023
    19  H   -0.000344   0.000406   0.003477   0.000004   0.000016  -0.000012
    20  Li  -0.000057   0.001932  -0.008431   0.003363   0.000075  -0.002381
    21  N   -0.045637  -0.050977  -0.024194  -0.089019  -0.056846  -0.049720
    22  N   -0.000258  -0.001025   0.030528  -0.000108  -0.000111   0.000221
    23  O   -0.001569  -0.000057  -0.033020   0.005924  -0.001681  -0.001712
    24  O   -0.000079  -0.000225  -0.000560   0.000085  -0.000031  -0.000044
    25  H   -0.000454  -0.000288   0.010447  -0.000154   0.000091  -0.000005
              13         14         15         16         17         18
     1  C    0.021207   0.042980  -0.004784  -0.004716   0.016771  -0.000459
     2  C    0.001730  -0.000036  -0.000097   0.003190  -0.000327  -0.000050
     3  C    0.465847   0.010221  -0.000643   0.009203   0.001878  -0.000245
     4  C   -0.000125   0.371117   0.447840   0.267667  -0.004893   0.004472
     5  C    0.000448   0.026176  -0.018181   0.003566   0.379173   0.416707
     6  C   -0.001883  -0.007709  -0.020021   0.062539  -0.011300   0.026618
     7  H   -0.002456  -0.002796   0.000769  -0.001886   0.000979   0.000416
     8  H   -0.003927   0.001403   0.000774  -0.002848  -0.002301  -0.000260
     9  H   -0.012003  -0.076219   0.001084   0.036169  -0.025672  -0.000637
    10  H   -0.009775   0.000216   0.000023   0.000190   0.000010  -0.000014
    11  H    0.000511  -0.000207   0.000071  -0.000398   0.000128  -0.000051
    12  H    0.003631  -0.000070  -0.000113   0.000683  -0.000072   0.000023
    13  H    0.650761   0.003217  -0.000385  -0.002270   0.000293   0.000092
    14  H    0.003217   0.638768  -0.047112  -0.032352   0.019226   0.001109
    15  H   -0.000385  -0.047112   0.568992  -0.059263  -0.003988   0.003216
    16  H   -0.002270  -0.032352  -0.059263   0.781311   0.005578  -0.015064
    17  H    0.000293   0.019226  -0.003988   0.005578   0.630074  -0.033191
    18  H    0.000092   0.001109   0.003216  -0.015064  -0.033191   0.569893
    19  H    0.000049  -0.006929   0.005051  -0.002016  -0.065087  -0.031932
    20  Li  -0.005513  -0.006755   0.005097  -0.057929  -0.005831   0.004885
    21  N   -0.191438  -0.010625   0.001274   0.001662  -0.001783   0.000213
    22  N   -0.000733  -0.049202  -0.056722  -0.027379  -0.043485  -0.071729
    23  O   -0.051251   0.009177  -0.000044  -0.022771   0.000264   0.000096
    24  O   -0.000389  -0.002328  -0.005634  -0.013885  -0.000390   0.003785
    25  H    0.000019  -0.006431  -0.004250   0.000943   0.002887  -0.009755
              19         20         21         22         23         24
     1  C   -0.002179   0.003649   0.228458  -0.018935   0.037246   0.003552
     2  C    0.000014  -0.004338   0.189393  -0.000402   0.012864   0.000019
     3  C   -0.000034  -0.042421   0.279716  -0.003590   0.314110  -0.003280
     4  C    0.026239   0.017150   0.003636   0.290563   0.006817  -0.025124
     5  C    0.406320   0.001830  -0.001463   0.186101   0.000957   0.024713
     6  C   -0.012224  -0.039354   0.004195   0.296101   0.011120   0.458623
     7  H   -0.000344  -0.000057  -0.045637  -0.000258  -0.001569  -0.000079
     8  H    0.000406   0.001932  -0.050977  -0.001025  -0.000057  -0.000225
     9  H    0.003477  -0.008431  -0.024194   0.030528  -0.033020  -0.000560
    10  H    0.000004   0.003363  -0.089019  -0.000108   0.005924   0.000085
    11  H    0.000016   0.000075  -0.056846  -0.000111  -0.001681  -0.000031
    12  H   -0.000012  -0.002381  -0.049720   0.000221  -0.001712  -0.000044
    13  H    0.000049  -0.005513  -0.191438  -0.000733  -0.051251  -0.000389
    14  H   -0.006929  -0.006755  -0.010625  -0.049202   0.009177  -0.002328
    15  H    0.005051   0.005097   0.001274  -0.056722  -0.000044  -0.005634
    16  H   -0.002016  -0.057929   0.001662  -0.027379  -0.022771  -0.013885
    17  H   -0.065087  -0.005831  -0.001783  -0.043485   0.000264  -0.000390
    18  H   -0.031932   0.004885   0.000213  -0.071729   0.000096   0.003785
    19  H    0.602329   0.001503  -0.000082  -0.067242   0.000187  -0.001123
    20  Li   0.001503   2.121527  -0.003378  -0.010460   0.147293   0.151993
    21  N   -0.000082  -0.003378   6.891461   0.005070  -0.215475  -0.002374
    22  N   -0.067242  -0.010460   0.005070   6.834476  -0.008141  -0.164417
    23  O    0.000187   0.147293  -0.215475  -0.008141   8.290448  -0.018619
    24  O   -0.001123   0.151993  -0.002374  -0.164417  -0.018619   8.022021
    25  H   -0.000769   0.012370  -0.000462  -0.188014  -0.005779  -0.022866
              25
     1  C   -0.002257
     2  C   -0.000332
     3  C   -0.003046
     4  C   -0.021577
     5  C    0.010317
     6  C    0.436555
     7  H   -0.000454
     8  H   -0.000288
     9  H    0.010447
    10  H   -0.000154
    11  H    0.000091
    12  H   -0.000005
    13  H    0.000019
    14  H   -0.006431
    15  H   -0.004250
    16  H    0.000943
    17  H    0.002887
    18  H   -0.009755
    19  H   -0.000769
    20  Li   0.012370
    21  N   -0.000462
    22  N   -0.188014
    23  O   -0.005779
    24  O   -0.022866
    25  H    0.649785
 Mulliken charges:
               1
     1  C   -0.310194
     2  C   -0.282960
     3  C    0.137296
     4  C   -0.206908
     5  C   -0.294034
     6  C    0.083844
     7  H    0.159102
     8  H    0.159574
     9  H    0.021990
    10  H    0.125843
    11  H    0.141769
    12  H    0.146065
    13  H    0.134343
    14  H    0.125161
    15  H    0.187046
    16  H    0.070078
    17  H    0.141058
    18  H    0.131860
    19  H    0.144379
    20  Li   0.714183
    21  N    0.138395
    22  N    0.068893
    23  O   -0.476385
    24  O   -0.403422
    25  H    0.143026
 Sum of Mulliken charges =   1.00000
 Mulliken charges with hydrogens summed into heavy atoms:
               1
     1  C    0.030471
     2  C    0.130717
     3  C    0.271640
     4  C    0.175377
     5  C    0.123262
     6  C    0.226869
    20  Li   0.714183
    21  N    0.138395
    22  N    0.068893
    23  O   -0.476385
    24  O   -0.403422
 APT charges:
               1
     1  C    0.297040
     2  C    0.395088
     3  C    1.345170
     4  C    0.317256
     5  C    0.391881
     6  C    1.316694
     7  H   -0.008565
     8  H   -0.009240
     9  H    0.050675
    10  H    0.016245
    11  H   -0.025685
    12  H   -0.027816
    13  H   -0.015780
    14  H    0.008002
    15  H   -0.021866
    16  H    0.010040
    17  H   -0.025517
    18  H    0.018278
    19  H   -0.026080
    20  Li   1.085657
    21  N   -0.812318
    22  N   -0.811191
    23  O   -1.241654
    24  O   -1.216565
    25  H   -0.009748
 Sum of APT charges =   1.00000
 APT charges with hydrogens summed into heavy atoms:
               1
     1  C    0.329910
     2  C    0.357833
     3  C    1.329390
     4  C    0.313430
     5  C    0.358563
     6  C    1.306946
    20  Li   1.085657
    21  N   -0.812318
    22  N   -0.811191
    23  O   -1.241654
    24  O   -1.216565
 Electronic spatial extent (au):  <R**2>=          11279.5879
 Charge=              1.0000 electrons
 Dipole moment (field-independent basis, Debye):
    X=             -4.8533    Y=             -1.0586    Z=            -22.1544  Tot=             22.7045
 Quadrupole moment (field-independent basis, Debye-Ang):
   XX=            -31.3572   YY=            -55.9066   ZZ=             64.4102
   XY=             -2.9474   XZ=             16.0118   YZ=              0.0991
 Traceless Quadrupole moment (field-independent basis, Debye-Ang):
   XX=            -23.7393   YY=            -48.2887   ZZ=             72.0281
   XY=             -2.9474   XZ=             16.0118   YZ=              0.0991
 Octapole moment (field-independent basis, Debye-Ang**2):
  XXX=             42.5977  YYY=             91.9908  ZZZ=            186.7942  XYY=             39.0130
  XXY=             46.3601  XXZ=            186.9499  XZZ=             16.6119  YZZ=             21.0951
  YYZ=            308.8645  XYZ=             28.5843
 Hexadecapole moment (field-independent basis, Debye-Ang**3):
 XXXX=          -1657.7586 YYYY=           -704.6374 ZZZZ=          -5822.2373 XXXY=            171.7019
 XXXZ=            -94.0685 YYYX=            217.5174 YYYZ=           -483.0937 ZZZX=           -692.7603
 ZZZY=           -259.0267 XXYY=           -457.7757 XXZZ=          -1512.2821 YYZZ=          -1847.3898
 XXYZ=           -251.6513 YYXZ=           -159.6511 ZZXY=           -149.4255
 N-N= 5.830010792007D+02 E-N=-2.332052364449D+03  KE= 5.024054934924D+02
 There are a total of      600898 grid points.
 ElSum from          density=       82.0000085101
 ElSum from atomic densities=       83.0000280717

 Hirshfeld populations at iteration   1 (CX, CA, CB, DipXYZ):
               1          2          3          4          5          6
     1  C    0.000000   3.007103   3.007103  -0.030588  -0.011738   0.022526
     2  C    0.000000   3.004135   3.004135   0.033948  -0.008178  -0.006392
     3  C    0.000000   2.917863   2.917863  -0.009545  -0.002090   0.015414
     4  C    0.000000   3.002302   3.002302   0.004554  -0.022460  -0.022558
     5  C    0.000000   3.003873   3.003873  -0.000636  -0.004295   0.034841
     6  C    0.000000   2.919464   2.919464   0.005085  -0.001929  -0.019507
     7  H    0.000003   0.475230   0.475230   0.011839   0.146231   0.046965
     8  H    0.000004   0.475339   0.475339  -0.057394   0.008179  -0.142459
     9  H    0.000000   0.479110   0.479110   0.123893  -0.021969  -0.028812
    10  H    0.000003   0.472397   0.472397  -0.084068  -0.095608   0.092035
    11  H    0.000004   0.475741   0.475741  -0.083752   0.008253  -0.127232
    12  H    0.000004   0.475756   0.475756  -0.015924   0.135861   0.067968
    13  H    0.000002   0.470102   0.470102  -0.086354  -0.086544   0.088199
    14  H    0.000002   0.473438   0.473438  -0.066797   0.126208  -0.054806
    15  H    0.000003   0.474702   0.474702   0.147321   0.043781   0.014667
    16  H    0.000001   0.474595   0.474595  -0.036508   0.012933   0.150362
    17  H    0.000003   0.476162   0.476162  -0.100587   0.095191  -0.061164
    18  H    0.000003   0.472270   0.472270  -0.016625  -0.129611  -0.087388
    19  H    0.000003   0.475771   0.475771   0.136430   0.053223  -0.042631
    20  Li   0.000002   1.219191   1.219191   0.035093  -0.043162   0.746655
    21  N    0.000000   3.501224   3.501224  -0.018739   0.042772  -0.023483
    22  N    0.000000   3.500480   3.500480   0.015827   0.047502  -0.018613
    23  O    0.000000   4.136682   4.136682  -0.094005   0.049928   0.008719
    24  O    0.000001   4.145125   4.145125   0.002913   0.044893  -0.102713
    25  H    0.000003   0.471948   0.471948  -0.016846  -0.114275  -0.093417
       Tot   0.000041  41.000004  41.000004  -0.201464   0.273097   0.457177

 Dip from Atomic Chgs             -1.707922  -0.689602  -9.173310
         Total Dipole             -1.909386  -0.416505  -8.716133

 Hirshfeld charges, spin densities, dipoles, and CM5 charges using IRadAn=      5:
              Q-H        S-H        Dx         Dy         Dz        Q-CM5   
     1  C   -0.014206   0.000000  -0.030588  -0.011738   0.022526  -0.100826
     2  C   -0.008270   0.000000   0.033948  -0.008178  -0.006392  -0.095931
     3  C    0.164273   0.000000  -0.009545  -0.002090   0.015414   0.218870
     4  C   -0.004603   0.000000   0.004554  -0.022460  -0.022558  -0.092579
     5  C   -0.007747   0.000000  -0.000636  -0.004295   0.034841  -0.095857
     6  C    0.161071   0.000000   0.005085  -0.001929  -0.019507   0.216137
     7  H    0.049541   0.000000   0.011839   0.146231   0.046965   0.110635
     8  H    0.049321   0.000000  -0.057394   0.008179  -0.142459   0.110521
     9  H    0.041780   0.000000   0.123893  -0.021969  -0.028812   0.110571
    10  H    0.055206   0.000000  -0.084068  -0.095608   0.092035   0.117498
    11  H    0.048518   0.000000  -0.083752   0.008253  -0.127232   0.109331
    12  H    0.048487   0.000000  -0.015924   0.135861   0.067968   0.109097
    13  H    0.059796   0.000000  -0.086354  -0.086544   0.088199   0.133463
    14  H    0.053123   0.000000  -0.066797   0.126208  -0.054806   0.115520
    15  H    0.050596   0.000000   0.147321   0.043781   0.014667   0.111300
    16  H    0.050811   0.000000  -0.036508   0.012933   0.150362   0.118636
    17  H    0.047676   0.000000  -0.100587   0.095191  -0.061164   0.108580
    18  H    0.055459   0.000000  -0.016625  -0.129611  -0.087388   0.117770
    19  H    0.048459   0.000000   0.136430   0.053223  -0.042631   0.109290
    20  Li   0.561618   0.000000   0.035093  -0.043162   0.746655   0.715359
    21  N   -0.002447   0.000000  -0.018739   0.042772  -0.023483  -0.286023
    22  N   -0.000961   0.000000   0.015827   0.047502  -0.018613  -0.286996
    23  O   -0.273364   0.000000  -0.094005   0.049928   0.008719  -0.390645
    24  O   -0.290251   0.000000   0.002913   0.044893  -0.102713  -0.413916
    25  H    0.056104   0.000000  -0.016846  -0.114275  -0.093417   0.130188
       Tot   0.999991   0.000000  -0.201464   0.273097   0.457177   0.999991
 Hirshfeld charges with hydrogens summed into heavy atoms:
              Q-H       Q-CM5   
     1  C    0.126436   0.230901
     2  C    0.143941   0.239995
     3  C    0.224070   0.352332
     4  C    0.149927   0.252877
     5  C    0.143847   0.239783
     6  C    0.217176   0.346325
    20  Li   0.561618   0.715359
    21  N   -0.002447  -0.286023
    22  N   -0.000961  -0.286996
    23  O   -0.273364  -0.390645
    24  O   -0.290251  -0.413916
 
 EQQ=  0.00000000000     EQD=  0.00000000000     EDD=-0.344050312869E-02
 EQQ+QD+DD=-0.344050312869E-02
 
  Exact polarizability:     123.131      -5.625     139.787      -4.326     -16.729     126.419
 Approx polarizability:     142.056     -11.557     167.686      -2.314     -28.244     150.674
 D2PCM: PCM CHGder 2nd derivatives, FixD1E=F FixD2E=F DoIter=F DoCFld=F I1PDM=0
 Calling FoFJK, ICntrl=    100527 FMM=F ISym2X=0 I1Cent= 4 IOpClX= 0 NMat=1 NMatS=1 NMatT=0.
 Full mass-weighted force constant matrix:
 Low frequencies ---  -26.3714   -0.0009    0.0003    0.0005   16.0902   18.6822
 Low frequencies ---   22.2223   38.5402   54.8810
 ******    1 imaginary frequencies (negative Signs) ****** 
 Diagonal vibrational polarizability:
      166.2586235     215.7599947     160.2468394
 Harmonic frequencies (cm**-1), IR intensities (KM/Mole), Raman scattering
 activities (A**4/AMU), depolarization ratios for plane and unpolarized
 incident light, reduced masses (AMU), force constants (mDyne/A),
 and normal coordinates:
                      1                      2                      3
                      A                      A                      A
 Frequencies --    -18.5203                20.4313                54.5256
 Red. masses --      2.7818                 3.7217                 4.4637
 Frc consts  --      0.0006                 0.0009                 0.0078
 IR Inten    --      2.2089                 0.9864                 3.3448
  Atom  AN      X      Y      Z        X      Y      Z        X      Y      Z
     1   6     0.02   0.17   0.19    -0.13   0.06   0.07    -0.14  -0.04  -0.16
     2   6    -0.08  -0.15  -0.13    -0.09   0.01   0.12    -0.06  -0.10  -0.02
     3   6     0.01  -0.01  -0.05    -0.07   0.02   0.02     0.10   0.14   0.12
     4   6     0.05  -0.03  -0.04    -0.02   0.00  -0.09     0.02  -0.07   0.09
     5   6    -0.04  -0.06  -0.03     0.31  -0.11  -0.04     0.06   0.09   0.03
     6   6    -0.03  -0.02   0.00     0.11  -0.03  -0.02    -0.04  -0.05  -0.08
     7   1    -0.17   0.15   0.28    -0.15   0.06   0.08    -0.24   0.02  -0.32
     8   1     0.17   0.20   0.12    -0.15   0.07   0.08    -0.17  -0.25  -0.16
     9   1     0.08   0.31   0.32    -0.12   0.09   0.04    -0.10   0.05  -0.13
    10   1    -0.10  -0.26  -0.28    -0.06  -0.01   0.12     0.03  -0.08   0.07
    11   1     0.04  -0.10  -0.20    -0.12   0.03   0.14    -0.08  -0.26  -0.02
    12   1    -0.23  -0.20  -0.04    -0.09  -0.00   0.15    -0.14  -0.05  -0.13
    13   1    -0.01  -0.15  -0.21    -0.04  -0.00   0.03     0.18   0.15   0.23
    14   1     0.10  -0.01  -0.06    -0.08  -0.07  -0.14    -0.05  -0.06   0.20
    15   1     0.07  -0.09  -0.04    -0.04   0.11  -0.06     0.02  -0.03   0.02
    16   1     0.04   0.01  -0.04    -0.03  -0.00  -0.09     0.11  -0.16   0.11
    17   1    -0.04  -0.04  -0.01     0.34  -0.15  -0.17     0.09   0.14   0.06
    18   1    -0.09  -0.06  -0.01     0.40  -0.14  -0.01     0.04   0.13  -0.04
    19   1    -0.04  -0.09  -0.06     0.33  -0.10   0.07     0.08   0.07   0.09
    20   3     0.04   0.04   0.02    -0.05   0.03  -0.06     0.04  -0.10  -0.00
    21   7    -0.01   0.01   0.00    -0.09   0.03   0.07    -0.02   0.01  -0.01
    22   7    -0.01  -0.04  -0.02     0.13  -0.05  -0.05     0.01  -0.01   0.02
    23   8     0.06   0.11   0.05    -0.07   0.03  -0.03     0.13   0.23   0.12
    24   8     0.00  -0.00   0.01    -0.05   0.02  -0.03    -0.09  -0.14  -0.10
    25   1    -0.07  -0.03   0.02     0.23  -0.07  -0.00    -0.03   0.02  -0.14
                      4                      5                      6
                      A                      A                      A
 Frequencies --     69.7014               100.0922               126.7003
 Red. masses --      4.8535                 2.1485                 1.7526
 Frc consts  --      0.0139                 0.0127                 0.0166
 IR Inten    --      3.2519                 1.6086                 3.1570
  Atom  AN      X      Y      Z        X      Y      Z        X      Y      Z
     1   6     0.15  -0.14   0.05    -0.05  -0.03  -0.02     0.00   0.02   0.00
     2   6    -0.00   0.04  -0.18    -0.03   0.00   0.04    -0.02   0.04  -0.04
     3   6    -0.10  -0.01   0.16    -0.04  -0.01   0.01    -0.02   0.04   0.03
     4   6     0.03   0.03  -0.07     0.25  -0.03   0.01    -0.09  -0.00   0.01
     5   6     0.11   0.03  -0.08    -0.03   0.01  -0.01    -0.05   0.01  -0.00
     6   6    -0.03   0.05  -0.09    -0.06   0.03   0.00     0.11  -0.04  -0.00
     7   1     0.16  -0.11  -0.02    -0.36   0.06  -0.24    -0.38   0.13  -0.27
     8   1     0.26  -0.19   0.00     0.13  -0.35  -0.12     0.26  -0.38  -0.13
     9   1     0.14  -0.19   0.19     0.05   0.18   0.26     0.13   0.27   0.38
    10   1    -0.12   0.12  -0.18    -0.02   0.01   0.06    -0.03   0.07  -0.02
    11   1     0.12  -0.01  -0.25    -0.05  -0.03   0.04     0.03  -0.04  -0.07
    12   1    -0.02   0.08  -0.27    -0.03   0.01   0.01    -0.07   0.07  -0.11
    13   1    -0.19   0.05   0.12    -0.02   0.02   0.05    -0.03   0.07   0.06
    14   1     0.15   0.08  -0.14     0.37   0.05   0.03    -0.08  -0.03  -0.04
    15   1     0.04  -0.06   0.05     0.29  -0.19   0.01    -0.10   0.03   0.08
    16   1    -0.11   0.07  -0.11     0.23   0.00   0.02    -0.15  -0.00  -0.02
    17   1     0.18   0.07  -0.13     0.03   0.11   0.07    -0.19  -0.12   0.02
    18   1     0.09   0.03  -0.08    -0.20   0.04  -0.01     0.10  -0.01  -0.00
    19   1     0.15  -0.03  -0.02     0.00  -0.11  -0.09    -0.13   0.18  -0.02
    20   3    -0.00  -0.02   0.05    -0.02   0.07  -0.01    -0.01  -0.09  -0.04
    21   7     0.01  -0.03   0.03    -0.03   0.00   0.03     0.00   0.06   0.05
    22   7     0.01   0.04  -0.08     0.07   0.01  -0.00     0.01  -0.02   0.00
    23   8    -0.11  -0.07   0.32    -0.05  -0.05  -0.06    -0.05  -0.02  -0.01
    24   8    -0.07   0.06  -0.09    -0.01   0.04   0.01     0.11  -0.04  -0.00
    25   1    -0.03   0.05  -0.09    -0.21   0.05   0.00     0.20  -0.05  -0.00
                      7                      8                      9
                      A                      A                      A
 Frequencies --    131.4221               173.9205               182.0102
 Red. masses --      2.3140                 1.4830                 1.2672
 Frc consts  --      0.0235                 0.0264                 0.0247
 IR Inten    --      2.9242                 3.1629                 1.0503
  Atom  AN      X      Y      Z        X      Y      Z        X      Y      Z
     1   6    -0.04   0.00   0.00    -0.04   0.01  -0.02    -0.00  -0.02  -0.02
     2   6    -0.06   0.05  -0.03    -0.02   0.02   0.02     0.02   0.04   0.05
     3   6    -0.09   0.02   0.01    -0.02   0.02  -0.00    -0.01  -0.02  -0.02
     4   6     0.11  -0.03   0.01     0.00  -0.03   0.02    -0.01   0.00  -0.00
     5   6    -0.10   0.03  -0.01     0.02  -0.01  -0.01    -0.00   0.01   0.00
     6   6     0.11  -0.03  -0.01     0.02  -0.01  -0.01     0.01  -0.00  -0.00
     7   1     0.30  -0.09   0.21     0.05  -0.02   0.04    -0.15   0.00  -0.07
     8   1    -0.24   0.33   0.10    -0.11   0.11   0.01     0.12  -0.11  -0.08
     9   1    -0.15  -0.23  -0.28    -0.06  -0.04  -0.12     0.05   0.07   0.12
    10   1    -0.09   0.07  -0.04    -0.03  -0.01  -0.02    -0.13  -0.21  -0.34
    11   1    -0.06   0.09  -0.03    -0.03   0.10   0.03     0.09   0.59   0.04
    12   1    -0.02   0.05  -0.02     0.01  -0.01   0.09     0.13  -0.19   0.53
    13   1    -0.11   0.02  -0.02    -0.02   0.01  -0.00    -0.02  -0.03  -0.04
    14   1    -0.08  -0.08   0.15     0.42   0.11  -0.20    -0.04  -0.01   0.01
    15   1     0.09   0.10  -0.17     0.06  -0.36   0.41    -0.02   0.03  -0.02
    16   1     0.32  -0.12   0.08    -0.42   0.13  -0.11     0.01  -0.01   0.00
    17   1    -0.25  -0.06   0.11     0.19   0.16  -0.02    -0.06  -0.06  -0.00
    18   1    -0.04   0.02  -0.02    -0.17   0.03  -0.02     0.08  -0.01   0.00
    19   1    -0.19   0.17  -0.14     0.11  -0.22   0.04    -0.04   0.09   0.00
    20   3     0.02  -0.02  -0.03     0.02  -0.06  -0.02     0.02   0.03   0.02
    21   7    -0.08   0.00  -0.04    -0.03  -0.01  -0.03    -0.02  -0.05  -0.07
    22   7     0.12  -0.03   0.00    -0.08   0.00  -0.01     0.01  -0.00   0.00
    23   8    -0.08   0.03   0.07    -0.01   0.03   0.02     0.01   0.03   0.05
    24   8     0.11  -0.04  -0.01     0.13  -0.00   0.01    -0.02  -0.01  -0.01
    25   1     0.10  -0.02  -0.02    -0.02  -0.01   0.00     0.02  -0.00  -0.01
                     10                     11                     12
                      A                      A                      A
 Frequencies --    195.2594               197.5265               251.2480
 Red. masses --      1.1943                 5.3196                 1.8336
 Frc consts  --      0.0268                 0.1223                 0.0682
 IR Inten    --      1.7986               104.3688                 6.0168
  Atom  AN      X      Y      Z        X      Y      Z        X      Y      Z
     1   6    -0.00  -0.00  -0.00     0.01  -0.01   0.03    -0.00  -0.03  -0.02
     2   6     0.01  -0.02   0.02    -0.01   0.02  -0.01    -0.03  -0.05  -0.07
     3   6     0.02   0.00   0.00    -0.04  -0.03  -0.01     0.03   0.05   0.08
     4   6     0.03  -0.00   0.00    -0.05  -0.07   0.09     0.00   0.00   0.00
     5   6    -0.03   0.00  -0.01     0.03   0.08   0.05    -0.01  -0.00   0.00
     6   6    -0.01   0.01  -0.00     0.02  -0.08  -0.05     0.00   0.00   0.00
     7   1     0.06  -0.02   0.03     0.02  -0.02   0.03     0.22  -0.02  -0.07
     8   1    -0.05   0.05   0.02     0.03  -0.00   0.02    -0.20  -0.01   0.07
     9   1    -0.02  -0.03  -0.07     0.01  -0.03   0.04    -0.07  -0.18  -0.21
    10   1     0.04  -0.00   0.06    -0.00   0.09   0.08    -0.17  -0.32  -0.48
    11   1    -0.02  -0.07   0.03    -0.03  -0.09  -0.01     0.25   0.23  -0.22
    12   1     0.00  -0.00  -0.02    -0.00   0.07  -0.12    -0.25  -0.22   0.25
    13   1     0.03  -0.00   0.01    -0.05  -0.03  -0.03     0.07   0.11   0.18
    14   1     0.29   0.06  -0.18     0.11  -0.01   0.02     0.03   0.01  -0.02
    15   1     0.05  -0.17   0.29    -0.03  -0.19   0.26     0.01  -0.02   0.04
    16   1    -0.28   0.10  -0.10    -0.21   0.01   0.03    -0.03   0.02  -0.01
    17   1    -0.34  -0.34  -0.05    -0.04   0.00   0.04    -0.00   0.01   0.01
    18   1     0.40  -0.08   0.03     0.20   0.10  -0.02    -0.03  -0.00   0.00
    19   1    -0.20   0.42  -0.02    -0.01   0.24   0.15    -0.00  -0.02  -0.01
    20   3    -0.05  -0.02   0.01     0.34   0.66  -0.08    -0.03   0.03  -0.07
    21   7     0.01  -0.01  -0.00    -0.01  -0.00   0.01     0.05   0.09   0.15
    22   7     0.06  -0.01  -0.00    -0.05  -0.03   0.03     0.01  -0.00   0.00
    23   8     0.02   0.01  -0.00    -0.05  -0.05  -0.02    -0.02  -0.04  -0.08
    24   8    -0.06   0.03  -0.00    -0.02  -0.15  -0.07    -0.00   0.00   0.00
    25   1    -0.00   0.00   0.01     0.09  -0.04  -0.10    -0.00  -0.00   0.01
                     13                     14                     15
                      A                      A                      A
 Frequencies --    264.0857               289.0296               321.0705
 Red. masses --      1.9311                 5.1619                 4.2120
 Frc consts  --      0.0793                 0.2541                 0.2558
 IR Inten    --     13.8655               101.9516                59.3370
  Atom  AN      X      Y      Z        X      Y      Z        X      Y      Z
     1   6     0.03  -0.02   0.01    -0.11   0.14  -0.08    -0.04   0.04  -0.02
     2   6     0.01  -0.01   0.02     0.00  -0.01  -0.03    -0.00   0.02  -0.02
     3   6     0.01  -0.01   0.00    -0.00   0.00  -0.05    -0.01  -0.00   0.00
     4   6    -0.06   0.02   0.00    -0.05  -0.03   0.01     0.04   0.23  -0.08
     5   6    -0.08   0.01  -0.01    -0.00   0.03  -0.04    -0.02  -0.12   0.09
     6   6     0.09  -0.02   0.00    -0.01  -0.00  -0.03    -0.05   0.06   0.05
     7   1     0.02  -0.02   0.02    -0.13   0.14  -0.09    -0.06   0.03   0.00
     8   1     0.05  -0.01   0.00    -0.25   0.11  -0.02    -0.06   0.04  -0.00
     9   1     0.03  -0.02   0.04    -0.09   0.21  -0.22    -0.03   0.07  -0.05
    10   1     0.03   0.00   0.05     0.01  -0.07  -0.10    -0.02   0.03  -0.02
    11   1    -0.01  -0.03   0.03     0.05   0.02  -0.05     0.00   0.02  -0.02
    12   1     0.03  -0.00  -0.00    -0.08  -0.04   0.03     0.01   0.02  -0.03
    13   1     0.02  -0.02   0.01    -0.09   0.07  -0.09    -0.04   0.02  -0.01
    14   1     0.01  -0.03  -0.18    -0.03  -0.05  -0.05     0.11   0.16  -0.31
    15   1    -0.09   0.07   0.27    -0.07   0.04   0.17     0.05   0.21  -0.05
    16   1    -0.31   0.07  -0.08    -0.18  -0.08  -0.05    -0.07   0.47  -0.07
    17   1     0.06   0.29   0.24     0.01   0.11   0.08    -0.03  -0.16   0.03
    18   1    -0.56   0.09  -0.04    -0.14   0.07  -0.07    -0.07  -0.18   0.23
    19   1    -0.01  -0.32  -0.25    -0.00  -0.03  -0.14    -0.03  -0.18  -0.02
    20   3    -0.10   0.07  -0.04     0.36  -0.12   0.58     0.33  -0.18  -0.26
    21   7     0.01  -0.02  -0.01     0.04   0.08   0.01    -0.00   0.00  -0.01
    22   7     0.17  -0.03   0.01     0.12  -0.03  -0.03     0.05   0.08   0.12
    23   8     0.02   0.02   0.00    -0.05  -0.15   0.01    -0.02  -0.04   0.03
    24   8    -0.10   0.00  -0.01    -0.05   0.02  -0.03    -0.07  -0.17  -0.01
    25   1     0.20  -0.03  -0.00    -0.05  -0.00  -0.03    -0.11   0.17  -0.06
                     16                     17                     18
                      A                      A                      A
 Frequencies --    335.3289               358.2762               362.7864
 Red. masses --      4.3469                 2.8988                 3.3697
 Frc consts  --      0.2880                 0.2192                 0.2613
 IR Inten    --     75.9634                10.7719               123.6006
  Atom  AN      X      Y      Z        X      Y      Z        X      Y      Z
     1   6    -0.09   0.22  -0.12    -0.01   0.06   0.05     0.02   0.02   0.05
     2   6     0.11  -0.11   0.04    -0.00   0.00  -0.04    -0.01  -0.01  -0.02
     3   6     0.02   0.03   0.00     0.06   0.10   0.16     0.05   0.09   0.13
     4   6     0.03  -0.01  -0.00    -0.06  -0.08   0.06     0.07   0.10  -0.08
     5   6    -0.01   0.01   0.01     0.02   0.01  -0.01    -0.02  -0.00   0.02
     6   6     0.04  -0.01   0.00    -0.09   0.01   0.00     0.10  -0.01  -0.01
     7   1    -0.25   0.20  -0.05    -0.12  -0.01   0.25    -0.03  -0.03   0.22
     8   1    -0.24   0.20  -0.05     0.11   0.22   0.00     0.13   0.17   0.01
     9   1    -0.02   0.42  -0.28     0.03   0.13   0.09     0.03   0.04   0.10
    10   1     0.23  -0.19   0.04    -0.03   0.03  -0.03    -0.02  -0.01  -0.02
    11   1     0.03  -0.12   0.08    -0.04   0.04  -0.02    -0.05   0.02   0.00
    12   1     0.04  -0.15   0.10     0.09   0.01  -0.04     0.04  -0.02  -0.01
    13   1    -0.12   0.16  -0.05     0.17   0.37   0.55     0.18   0.33   0.50
    14   1     0.02   0.02   0.05    -0.14  -0.11   0.10     0.16   0.13  -0.13
    15   1     0.04  -0.04  -0.08    -0.09   0.03   0.11     0.11  -0.03  -0.15
    16   1     0.09  -0.00   0.02    -0.06  -0.18   0.03     0.08   0.22  -0.05
    17   1     0.00   0.01  -0.01    -0.00   0.02   0.04     0.01  -0.01  -0.05
    18   1     0.01   0.01  -0.00     0.01   0.02  -0.04    -0.01  -0.02   0.04
    19   1    -0.00   0.01   0.04     0.00   0.03  -0.03    -0.00  -0.02   0.04
    20   3    -0.23   0.12  -0.19     0.15  -0.05  -0.17    -0.18   0.07   0.28
    21   7     0.13   0.03  -0.07    -0.04  -0.10  -0.13    -0.04  -0.08  -0.10
    22   7    -0.05   0.01   0.00     0.07  -0.04  -0.02    -0.09   0.05   0.02
    23   8    -0.04  -0.20   0.21    -0.02  -0.07  -0.06    -0.02  -0.05  -0.10
    24   8    -0.00  -0.01   0.00     0.01   0.11   0.03    -0.01  -0.15  -0.05
    25   1     0.14  -0.03   0.01    -0.26  -0.02   0.05     0.30   0.03  -0.08
                     19                     20                     21
                      A                      A                      A
 Frequencies --    385.2478               404.6605               415.1671
 Red. masses --      2.9804                 2.3926                 2.3816
 Frc consts  --      0.2606                 0.2308                 0.2419
 IR Inten    --    125.8603                17.5064                13.4742
  Atom  AN      X      Y      Z        X      Y      Z        X      Y      Z
     1   6    -0.01  -0.00   0.00     0.18  -0.01  -0.05     0.01  -0.00  -0.00
     2   6    -0.01   0.01  -0.01    -0.06  -0.15   0.12    -0.01  -0.01   0.01
     3   6     0.00  -0.00   0.00    -0.05   0.11  -0.03    -0.00   0.00  -0.00
     4   6     0.06  -0.05   0.04    -0.01   0.00   0.01     0.02  -0.01  -0.19
     5   6    -0.04  -0.01  -0.01    -0.00  -0.01  -0.00     0.03   0.19   0.05
     6   6     0.21  -0.02   0.02    -0.00   0.01  -0.00    -0.02  -0.10   0.07
     7   1    -0.01  -0.00   0.01     0.32   0.00  -0.10     0.02  -0.00  -0.00
     8   1    -0.01   0.01   0.00     0.34   0.00  -0.12     0.01   0.00  -0.01
     9   1    -0.01  -0.00  -0.00     0.11  -0.20   0.13     0.00  -0.02   0.00
    10   1    -0.02   0.02  -0.01     0.23  -0.34   0.14     0.01  -0.02   0.01
    11   1     0.00   0.02  -0.02    -0.26  -0.22   0.23    -0.01  -0.01   0.01
    12   1     0.00   0.02  -0.02    -0.24  -0.22   0.25    -0.02  -0.01   0.01
    13   1     0.01   0.00   0.02    -0.08   0.17  -0.02    -0.01   0.01  -0.00
    14   1     0.14   0.07   0.19    -0.02   0.00   0.03     0.06  -0.08  -0.39
    15   1     0.12  -0.24  -0.07    -0.01   0.01   0.01     0.03  -0.04  -0.28
    16   1     0.16  -0.08   0.07     0.01  -0.02   0.01     0.01   0.24  -0.15
    17   1    -0.00   0.00  -0.06    -0.00  -0.02  -0.01     0.05   0.33   0.26
    18   1    -0.07  -0.01   0.00    -0.00  -0.02   0.02     0.05   0.35  -0.25
    19   1    -0.02  -0.04   0.02    -0.00  -0.02  -0.01     0.03   0.30   0.24
    20   3     0.19  -0.11  -0.08     0.07  -0.03   0.00     0.04  -0.06  -0.03
    21   7    -0.01  -0.01  -0.00    -0.01   0.10  -0.08    -0.00   0.01  -0.00
    22   7    -0.15   0.02  -0.02     0.00   0.01   0.00    -0.02  -0.12   0.00
    23   8    -0.00  -0.00  -0.01    -0.09   0.01   0.00    -0.01   0.00   0.00
    24   8    -0.18   0.11   0.02     0.00   0.01  -0.00    -0.03  -0.00   0.10
    25   1     0.77  -0.16   0.10    -0.01   0.01  -0.00    -0.01  -0.14   0.11
                     22                     23                     24
                      A                      A                      A
 Frequencies --    667.4021               675.3303               878.2971
 Red. masses --      5.1282                 5.3264                 3.7406
 Frc consts  --      1.3458                 1.4313                 1.7001
 IR Inten    --     37.3900                40.3213                 7.7557
  Atom  AN      X      Y      Z        X      Y      Z        X      Y      Z
     1   6    -0.00  -0.00   0.00    -0.03  -0.01   0.02    -0.14  -0.13   0.14
     2   6     0.02  -0.01  -0.00     0.35  -0.14  -0.03     0.12  -0.02  -0.03
     3   6    -0.01  -0.00   0.01    -0.22  -0.04   0.11     0.05   0.16  -0.12
     4   6     0.00  -0.01  -0.04    -0.00   0.00   0.00    -0.03  -0.18  -0.15
     5   6    -0.04  -0.09   0.36     0.00   0.01  -0.02    -0.01  -0.00   0.12
     6   6     0.00  -0.10  -0.23     0.00   0.01   0.01     0.03   0.19   0.05
     7   1    -0.01  -0.00   0.00    -0.24  -0.03   0.09    -0.02  -0.12   0.10
     8   1    -0.01   0.00   0.01    -0.22  -0.01   0.11    -0.03  -0.13   0.09
     9   1     0.00   0.01  -0.01     0.04   0.21  -0.16    -0.20  -0.28   0.27
    10   1     0.02  -0.01  -0.00     0.36  -0.15  -0.04     0.19  -0.06  -0.02
    11   1     0.02  -0.01  -0.00     0.31  -0.13  -0.02     0.10  -0.03  -0.02
    12   1     0.02  -0.01  -0.00     0.30  -0.15  -0.01     0.11  -0.03  -0.01
    13   1    -0.01   0.00   0.01    -0.23  -0.01   0.13    -0.03   0.23  -0.17
    14   1     0.01  -0.13  -0.28    -0.00   0.01   0.02    -0.02  -0.10  -0.01
    15   1     0.01   0.01  -0.22    -0.00   0.00   0.01    -0.03  -0.20  -0.02
    16   1     0.05   0.27   0.02     0.00  -0.01   0.00    -0.07  -0.37  -0.20
    17   1    -0.04  -0.10   0.33     0.00   0.01  -0.02    -0.02  -0.01   0.11
    18   1    -0.04  -0.09   0.36     0.00   0.01  -0.02    -0.02  -0.03   0.19
    19   1    -0.05  -0.10   0.32     0.00   0.01  -0.02    -0.01  -0.01   0.09
    20   3    -0.02   0.00   0.05     0.05  -0.02   0.03     0.00   0.00  -0.01
    21   7     0.01  -0.00   0.00     0.12  -0.07   0.01    -0.02   0.07  -0.04
    22   7    -0.01  -0.07   0.13     0.00   0.00  -0.01     0.02   0.08  -0.02
    23   8    -0.01   0.01  -0.01    -0.22   0.24  -0.10    -0.00  -0.04   0.03
    24   8     0.05   0.23  -0.22     0.00  -0.02   0.01    -0.01  -0.05  -0.00
    25   1     0.01  -0.09  -0.25    -0.00   0.01   0.01     0.04   0.27  -0.02
                     25                     26                     27
                      A                      A                      A
 Frequencies --    878.6456              1008.1576              1014.9766
 Red. masses --      3.7495                 1.5749                 1.5425
 Frc consts  --      1.7055                 0.9431                 0.9362
 IR Inten    --      0.1313                 0.2333                 0.3743
  Atom  AN      X      Y      Z        X      Y      Z        X      Y      Z
     1   6     0.14   0.12  -0.14    -0.01  -0.01  -0.01     0.00  -0.00   0.00
     2   6    -0.11   0.02   0.03     0.00   0.00   0.01    -0.00  -0.00   0.00
     3   6    -0.05  -0.16   0.12    -0.05  -0.11  -0.17     0.00   0.00   0.00
     4   6    -0.03  -0.19  -0.15    -0.00  -0.00  -0.00    -0.02   0.01  -0.00
     5   6    -0.01  -0.00   0.12     0.00  -0.00  -0.00     0.01  -0.01   0.01
     6   6     0.03   0.20   0.05    -0.00   0.00  -0.00    -0.20   0.03  -0.01
     7   1     0.02   0.11  -0.10    -0.03  -0.06   0.11    -0.00  -0.00  -0.00
     8   1     0.03   0.12  -0.09     0.06   0.10  -0.04    -0.00  -0.00   0.00
     9   1     0.19   0.27  -0.26     0.01   0.02   0.05     0.00   0.00  -0.00
    10   1    -0.18   0.06   0.02    -0.02  -0.01  -0.03    -0.00   0.00   0.00
    11   1    -0.09   0.03   0.02     0.05  -0.03  -0.02    -0.00   0.00   0.00
    12   1    -0.10   0.03   0.01    -0.05   0.01  -0.01     0.00  -0.00   0.00
    13   1     0.03  -0.22   0.16     0.25   0.52   0.76    -0.00  -0.01  -0.02
    14   1    -0.02  -0.10  -0.01     0.00   0.00   0.00     0.06   0.10   0.06
    15   1    -0.03  -0.20  -0.03     0.00  -0.00  -0.00     0.02  -0.12  -0.03
    16   1    -0.06  -0.39  -0.20     0.00   0.00   0.00     0.05  -0.02   0.02
    17   1    -0.02  -0.02   0.12    -0.00  -0.00   0.00    -0.02   0.00   0.07
    18   1    -0.03  -0.04   0.20    -0.00  -0.00   0.00    -0.03   0.01  -0.02
    19   1    -0.01  -0.01   0.09    -0.00   0.00  -0.00    -0.01   0.01  -0.04
    20   3     0.00   0.00  -0.00     0.00   0.00  -0.00    -0.00   0.00   0.00
    21   7     0.02  -0.07   0.04     0.02   0.03   0.04     0.00  -0.00  -0.00
    22   7     0.02   0.08  -0.02     0.00  -0.00   0.00     0.05  -0.01  -0.00
    23   8     0.00   0.04  -0.03     0.01   0.03   0.04     0.00  -0.00  -0.00
    24   8    -0.01  -0.05  -0.00     0.00  -0.00   0.00     0.05  -0.01   0.00
    25   1     0.05   0.28  -0.02     0.02  -0.00   0.00     0.94  -0.17   0.04
                     28                     29                     30
                      A                      A                      A
 Frequencies --   1074.3536              1078.2117              1110.5881
 Red. masses --      1.4101                 1.4008                 1.5715
 Frc consts  --      0.9590                 0.9594                 1.1420
 IR Inten    --     16.7469                12.6537                46.2459
  Atom  AN      X      Y      Z        X      Y      Z        X      Y      Z
     1   6    -0.05   0.11  -0.06    -0.01   0.01  -0.01    -0.08   0.01  -0.03
     2   6     0.06  -0.08   0.04     0.01  -0.01   0.01     0.07   0.10  -0.05
     3   6    -0.00  -0.02   0.02     0.00  -0.00   0.00    -0.00  -0.10   0.08
     4   6     0.01   0.02  -0.01    -0.03  -0.12   0.05    -0.01  -0.02   0.03
     5   6    -0.00  -0.01   0.01     0.03   0.09  -0.06    -0.00  -0.05  -0.03
     6   6    -0.00  -0.00  -0.00    -0.01   0.02   0.00     0.01   0.05   0.00
     7   1     0.38   0.11  -0.12     0.05   0.01  -0.01     0.13  -0.04   0.10
     8   1     0.33   0.02  -0.23     0.04   0.01  -0.03     0.24   0.16  -0.18
     9   1    -0.20  -0.35   0.33    -0.02  -0.04   0.04    -0.11  -0.13   0.25
    10   1    -0.32   0.15   0.01    -0.05   0.02   0.00     0.46  -0.23  -0.11
    11   1     0.31   0.08  -0.10     0.04   0.01  -0.01    -0.15  -0.21   0.06
    12   1     0.26   0.04  -0.19     0.03   0.01  -0.03    -0.40  -0.03   0.18
    13   1     0.02  -0.05   0.01     0.00  -0.01  -0.00     0.05  -0.20   0.04
    14   1    -0.01   0.03   0.05     0.06  -0.28  -0.37     0.01  -0.06  -0.08
    15   1     0.01   0.01   0.05    -0.02  -0.04  -0.34    -0.00  -0.02  -0.08
    16   1    -0.01  -0.06  -0.03     0.05   0.46   0.17     0.02   0.12   0.06
    17   1     0.01   0.02   0.03    -0.07  -0.13  -0.27     0.02   0.06   0.13
    18   1     0.01   0.01  -0.05    -0.06  -0.12   0.35     0.02   0.05  -0.21
    19   1    -0.01   0.02   0.05     0.05  -0.14  -0.33    -0.02   0.08   0.10
    20   3    -0.00   0.00  -0.00    -0.00  -0.00   0.00    -0.01   0.00  -0.00
    21   7    -0.06  -0.01   0.03    -0.01  -0.00   0.00    -0.04   0.04  -0.01
    22   7    -0.00  -0.00  -0.01     0.00   0.02   0.06    -0.00  -0.02   0.02
    23   8    -0.00  -0.00   0.00    -0.00  -0.00  -0.00     0.03  -0.01  -0.00
    24   8     0.00  -0.00  -0.00     0.00  -0.00   0.00     0.00  -0.00  -0.01
    25   1     0.00  -0.00   0.00     0.05   0.03  -0.01     0.02   0.08  -0.03
                     31                     32                     33
                      A                      A                      A
 Frequencies --   1111.3122              1115.3155              1116.1166
 Red. masses --      1.6071                 1.2444                 1.2757
 Frc consts  --      1.1694                 0.9120                 0.9363
 IR Inten    --    155.3801                 0.5010                11.4000
  Atom  AN      X      Y      Z        X      Y      Z        X      Y      Z
     1   6    -0.03   0.01  -0.01     0.00   0.01   0.02    -0.00  -0.07  -0.07
     2   6     0.03   0.04  -0.02    -0.00  -0.00  -0.02     0.00   0.02   0.10
     3   6    -0.00  -0.04   0.03    -0.00  -0.01   0.00     0.01   0.05  -0.01
     4   6     0.02   0.03  -0.07     0.10  -0.04   0.01     0.02  -0.01   0.00
     5   6     0.00   0.11   0.07    -0.09   0.01  -0.02    -0.02   0.00  -0.00
     6   6    -0.02  -0.13  -0.01    -0.02   0.02   0.00    -0.00   0.00   0.00
     7   1     0.05  -0.01   0.03     0.03   0.04  -0.07    -0.19  -0.22   0.38
     8   1     0.09   0.06  -0.07    -0.03  -0.07   0.03     0.14   0.34  -0.12
     9   1    -0.05  -0.05   0.10    -0.02  -0.03  -0.03     0.11   0.19   0.10
    10   1     0.19  -0.09  -0.04     0.04   0.01   0.03    -0.23  -0.04  -0.15
    11   1    -0.07  -0.09   0.03    -0.08   0.04   0.03     0.43  -0.19  -0.16
    12   1    -0.16  -0.01   0.08     0.06  -0.02   0.03    -0.32   0.13  -0.16
    13   1     0.02  -0.08   0.02     0.01   0.01   0.03    -0.07  -0.03  -0.17
    14   1    -0.05   0.12   0.19    -0.22  -0.33  -0.16    -0.04  -0.06  -0.03
    15   1     0.00   0.05   0.21    -0.04   0.45   0.19    -0.01   0.09   0.04
    16   1    -0.05  -0.29  -0.15    -0.23   0.02  -0.10    -0.05  -0.00  -0.02
    17   1    -0.05  -0.15  -0.34     0.18   0.12  -0.36     0.04   0.02  -0.07
    18   1    -0.03  -0.14   0.54     0.21  -0.03  -0.03     0.04  -0.01  -0.00
    19   1     0.06  -0.21  -0.22     0.07  -0.13   0.42     0.01  -0.03   0.08
    20   3     0.00  -0.00  -0.01    -0.00   0.00   0.00     0.00  -0.00   0.00
    21   7    -0.01   0.02  -0.01    -0.00   0.00  -0.00     0.01  -0.01   0.00
    22   7     0.01   0.04  -0.04    -0.00   0.00   0.01    -0.00   0.00   0.00
    23   8     0.01  -0.00  -0.00     0.00  -0.00  -0.00    -0.01   0.00   0.00
    24   8    -0.00   0.00   0.03     0.00   0.00  -0.00    -0.00   0.00  -0.00
    25   1    -0.02  -0.20   0.07     0.18  -0.01   0.00     0.03  -0.00   0.00
                     34                     35                     36
                      A                      A                      A
 Frequencies --   1161.1847              1164.2525              1280.2120
 Red. masses --      1.3918                 1.3949                 3.9515
 Frc consts  --      1.1057                 1.1140                 3.8157
 IR Inten    --      4.2294                 1.4131                38.9945
  Atom  AN      X      Y      Z        X      Y      Z        X      Y      Z
     1   6    -0.00   0.00  -0.00    -0.03  -0.06  -0.08    -0.01  -0.00   0.01
     2   6     0.00  -0.00  -0.00    -0.03  -0.06  -0.08    -0.01   0.00   0.00
     3   6     0.00  -0.00   0.00     0.00   0.01   0.02    -0.00  -0.01   0.01
     4   6    -0.10   0.02   0.00     0.00   0.00  -0.00    -0.02  -0.05  -0.18
     5   6    -0.11   0.02  -0.00    -0.00  -0.00   0.00     0.00  -0.00  -0.18
     6   6     0.02   0.01  -0.00     0.00  -0.00   0.00    -0.02  -0.12  -0.01
     7   1     0.00   0.00  -0.00    -0.10  -0.22   0.37     0.02  -0.00   0.00
     8   1     0.00   0.00  -0.00     0.18   0.36  -0.16     0.02  -0.01  -0.01
     9   1    -0.00  -0.00   0.00     0.07   0.14   0.20    -0.02  -0.02   0.02
    10   1    -0.00   0.00   0.00     0.06   0.15   0.22    -0.03   0.01   0.00
    11   1     0.00   0.00  -0.00    -0.34   0.29   0.12    -0.01   0.01   0.00
    12   1     0.00   0.00  -0.00     0.45  -0.12   0.11    -0.01   0.01  -0.00
    13   1    -0.00  -0.00  -0.00    -0.03  -0.05  -0.08    -0.04   0.03  -0.01
    14   1     0.23   0.27   0.09     0.00   0.00  -0.00    -0.07   0.13   0.23
    15   1     0.03  -0.42  -0.21    -0.00   0.00   0.00     0.00  -0.19   0.27
    16   1     0.24   0.04   0.13     0.00  -0.00  -0.00     0.09  -0.37  -0.18
    17   1     0.20   0.13  -0.41     0.00   0.00  -0.00     0.05   0.06  -0.14
    18   1     0.26  -0.05   0.04     0.00  -0.00   0.00     0.05   0.04  -0.28
    19   1     0.09  -0.20   0.43     0.00  -0.00   0.00     0.00   0.04  -0.10
    20   3    -0.00  -0.00   0.00     0.00   0.00   0.00     0.00  -0.00  -0.00
    21   7    -0.00   0.00   0.00     0.03   0.05   0.08     0.03   0.00  -0.01
    22   7     0.10  -0.03  -0.01    -0.00   0.00  -0.00    -0.00   0.08   0.38
    23   8    -0.00  -0.00   0.00    -0.00  -0.00  -0.00    -0.00   0.00  -0.00
    24   8    -0.01  -0.00   0.00    -0.00   0.00   0.00     0.01   0.06  -0.02
    25   1    -0.09   0.03  -0.01    -0.00  -0.00   0.00     0.07   0.28  -0.44
                     37                     38                     39
                      A                      A                      A
 Frequencies --   1282.2788              1413.0787              1418.1009
 Red. masses --      4.0182                 1.3149                 1.4044
 Frc consts  --      3.8927                 1.5470                 1.6640
 IR Inten    --     37.8989                66.8611                60.2240
  Atom  AN      X      Y      Z        X      Y      Z        X      Y      Z
     1   6    -0.17  -0.02   0.08    -0.05  -0.07   0.07    -0.01  -0.00   0.00
     2   6    -0.17   0.03   0.05    -0.03  -0.03   0.03     0.00   0.00  -0.00
     3   6    -0.01  -0.10   0.07     0.02  -0.01   0.01     0.00   0.00  -0.00
     4   6     0.00   0.01   0.01    -0.00  -0.00   0.00    -0.02  -0.08  -0.03
     5   6    -0.00   0.00   0.02    -0.00  -0.00  -0.00    -0.01  -0.06  -0.02
     6   6     0.00   0.01   0.00    -0.00  -0.00  -0.00    -0.01  -0.04   0.00
     7   1     0.31  -0.01   0.01     0.14   0.06  -0.27     0.04   0.01  -0.02
     8   1     0.24  -0.13  -0.12     0.23   0.21  -0.06     0.03   0.01  -0.01
     9   1    -0.22  -0.20   0.22     0.07   0.28  -0.24     0.01   0.04  -0.02
    10   1    -0.29   0.08   0.03     0.10  -0.11   0.01     0.00   0.00  -0.00
    11   1    -0.10   0.07   0.01     0.14   0.20  -0.06     0.00  -0.02  -0.00
    12   1    -0.13   0.06  -0.03     0.11   0.11  -0.23     0.01  -0.01   0.02
    13   1    -0.44   0.31  -0.08     0.49  -0.46   0.15    -0.04   0.04  -0.01
    14   1    -0.00  -0.02  -0.02     0.01   0.01   0.00     0.19   0.15   0.12
    15   1     0.00  -0.00  -0.02    -0.00   0.01  -0.01    -0.08   0.22  -0.03
    16   1    -0.01   0.04   0.02    -0.00  -0.00  -0.00     0.02   0.19   0.03
    17   1    -0.01  -0.01   0.01     0.00   0.00   0.00     0.21   0.27   0.11
    18   1    -0.00  -0.01   0.03    -0.00  -0.00   0.00     0.02  -0.10   0.08
    19   1     0.00  -0.01   0.01    -0.00   0.00   0.00    -0.12   0.29   0.06
    20   3     0.00   0.00   0.00    -0.00   0.00   0.00    -0.00  -0.00   0.00
    21   7     0.37   0.01  -0.14     0.02   0.07  -0.05    -0.00  -0.00   0.00
    22   7     0.00  -0.01  -0.03     0.00   0.00  -0.00     0.03   0.13   0.02
    23   8    -0.02   0.05  -0.03    -0.05   0.00   0.01     0.00   0.00  -0.00
    24   8    -0.00  -0.01   0.00     0.00  -0.00   0.00     0.00  -0.01  -0.04
    25   1    -0.01  -0.02   0.04     0.00   0.00  -0.00    -0.11  -0.51   0.52
                     40                     41                     42
                      A                      A                      A
 Frequencies --   1420.5957              1429.1650              1432.0655
 Red. masses --      1.2605                 1.5291                 1.3671
 Frc consts  --      1.4987                 1.8402                 1.6519
 IR Inten    --     16.5501                 5.6366                 4.5830
  Atom  AN      X      Y      Z        X      Y      Z        X      Y      Z
     1   6    -0.05  -0.01   0.03    -0.01   0.07  -0.05     0.00  -0.01   0.01
     2   6    -0.02   0.04  -0.02    -0.06   0.05  -0.01     0.00  -0.00  -0.00
     3   6     0.02   0.03  -0.03     0.03   0.07  -0.06    -0.00  -0.01   0.00
     4   6     0.00   0.00   0.00     0.00   0.01   0.01     0.01   0.08   0.01
     5   6     0.00   0.00   0.00    -0.00  -0.00   0.00     0.01   0.03  -0.07
     6   6     0.00  -0.00  -0.00     0.00   0.00  -0.00     0.01   0.07   0.01
     7   1     0.41   0.03  -0.14     0.14  -0.12   0.41    -0.01   0.01  -0.05
     8   1     0.41   0.00  -0.18    -0.05  -0.45  -0.02     0.03   0.05  -0.01
     9   1     0.09   0.41  -0.34    -0.06  -0.10   0.12     0.01   0.02  -0.04
    10   1     0.11  -0.02   0.01     0.13  -0.11  -0.05    -0.00   0.01   0.01
    11   1     0.07  -0.26  -0.07     0.03  -0.21  -0.07     0.01   0.01  -0.00
    12   1     0.14  -0.09   0.24     0.19  -0.01   0.13    -0.01  -0.00  -0.00
    13   1    -0.21   0.26  -0.10     0.48  -0.35   0.08    -0.04   0.03  -0.01
[...]
 00000158,0.00000981,0.00000819,-0.00001265,-0.00000405,-0.00007106,0.0
 0002767,-0.00008023,-0.00000515,0.00000354,0.00000072,0.00001409,-0.00
 000229,0.00000099,0.00001058,-0.00000510,-0.00000365,0.00003703,-0.000
 00182,-0.00000963,0.00028398,-0.00071015,0.00052214,-0.00001464,-0.000
 35539,-0.00002092,0.00013876,0.00013088,0.00020221,0.06164250,-0.06217
 681,0.08733439,0.00002559,-0.00001149,-0.00000239,-0.00000316,-0.00000
 262,0.00000415,-0.00002762,0.00001189,0.00000435,0.00076944,0.00004116
 ,0.00038850,-0.05039797,-0.03172635,-0.01568973,0.00070987,0.00000730,
 0.00087528,-0.00000472,0.00000051,-0.00000066,-0.00000358,0.00000210,-
 0.00000299,-0.00000238,0.00001270,0.00001126,-0.00000137,0.00000125,0.
 00000080,0.00000009,-0.00000037,-0.00000030,0.00000057,-0.00000073,-0.
 00000075,0.00000130,-0.00000119,0.00000024,0.00005233,-0.00029443,0.00
 009107,0.00012224,0.00018165,0.00028358,0.00030062,-0.00011498,0.00020
 913,0.00363275,0.01846039,0.01073181,0.04778000,-0.00001914,0.00000786
 ,-0.00000829,-0.00000795,0.00000328,-0.00000101,-0.00006754,0.00002674
 ,-0.00000916,0.00022415,0.00057309,0.00041436,-0.03080780,-0.26497256,
 -0.11146751,-0.00060256,-0.00084008,0.00543013,-0.00000027,-0.00000172
 ,0.00000076,0.00000374,-0.00000288,0.00000683,-0.00000717,0.00000120,-
 0.00000310,0.00000065,-0.00000058,0.00000036,0.00000324,-0.00000139,0.
 00000147,0.00000228,-0.00000199,0.00000072,0.00001154,0.00000205,-0.00
 000312,-0.00013895,0.00020599,0.00006046,-0.00004738,-0.00007840,-0.00
 004066,-0.00024402,-0.00010076,0.00028619,-0.00483536,-0.01376386,-0.0
 0818042,0.03361785,0.27986834,0.00001014,0.00000522,-0.00000252,-0.000
 01522,-0.00000225,0.00000487,-0.00012527,0.00007938,-0.00000852,0.0017
 1802,0.00359557,-0.00483764,-0.01359454,-0.10002482,-0.10198616,-0.000
 77234,-0.00454824,0.00050447,-0.00000353,-0.00000332,0.00000115,0.0000
 0519,-0.00000377,0.00000316,-0.00002697,0.00001332,-0.00001343,0.00000
 147,0.00000079,-0.00000041,0.00000355,-0.00000030,0.00000127,0.0000037
 1,-0.00000195,-0.00000006,0.00001921,-0.00000081,-0.00000910,0.0000752
 0,0.00012039,0.00021429,-0.00013163,-0.00002934,0.00002376,-0.00032797
 ,-0.00133786,-0.00118918,0.00232207,0.00917486,0.00524395,0.01506481,0
 .11686543,0.11957275,0.00002082,-0.00001895,0.00000814,0.00001904,-0.0
 0000252,-0.00000706,0.00013855,-0.00006702,-0.00000548,0.00083090,-0.0
 0025751,-0.00002780,-0.26885714,-0.08673348,0.04608578,-0.00002091,0.0
 0283261,-0.00162999,-0.00000709,0.00000958,0.00000308,0.00000306,-0.00
 000073,-0.00000776,-0.00000390,-0.00000865,0.00000319,-0.00000250,-0.0
 0000211,0.00000200,-0.00000567,0.00000178,-0.00000114,-0.00000529,0.00
 000404,0.00000274,-0.00001757,-0.00000227,0.00000291,-0.00024456,0.000
 10792,-0.00011959,-0.00030256,0.00043729,0.00047795,0.00006945,0.00003
 486,0.00006786,-0.01852549,-0.00883009,0.00339866,-0.00120602,0.001345
 15,0.00007696,0.28442480,-0.00002784,0.00000735,-0.00000329,0.00001147
 ,0.00000409,-0.00000696,0.00011135,-0.00007162,0.00000724,0.00088509,-
 0.00009022,-0.00037687,-0.08516209,-0.08049825,0.01731038,-0.00140853,
 0.00093976,0.00091858,0.00000639,0.00000175,-0.00000341,-0.00000617,0.
 00000464,0.00000211,0.00002342,-0.00001264,-0.00000034,0.00000063,-0.0
 0000146,0.00000006,-0.00000397,0.00000112,-0.00000027,-0.00000399,0.00
 000190,0.00000079,-0.00001589,0.00000196,0.00000540,0.00010867,0.00004
 224,0.00003089,-0.00003541,0.00037913,0.00034639,-0.00000691,-0.000029
 19,0.00014944,0.01918983,0.00736893,-0.00418910,-0.02400120,-0.0072060
 1,0.00648411,0.09389169,0.08163568,0.00003629,0.00001147,-0.00002069,-
 0.00003843,-0.00001070,0.00001945,-0.00037845,0.00020353,-0.00002817,0
 .00086555,0.00173452,0.00205995,0.04131984,0.01445370,-0.05537835,0.00
 300751,-0.00763060,0.00063224,-0.00000632,-0.00001079,0.00000677,0.000
 00296,-0.00001258,0.00000985,-0.00001788,0.00002718,-0.00001190,0.0000
 0083,0.00000326,-0.00000261,0.00001616,-0.00000431,0.00000319,0.000013
 77,-0.00000753,-0.00000436,0.00005275,0.00000325,-0.00000907,-0.000089
 13,-0.00021466,-0.00019164,-0.00060409,-0.00023747,0.00009381,-0.00011
 998,0.00010151,0.00005495,-0.00814880,-0.00413881,0.00273724,-0.013236
 74,-0.00355266,0.00339516,-0.05441663,-0.02424762,0.07016684,0.0009321
 6,0.00036501,-0.00059232,-0.00113651,-0.00025129,0.00050911,-0.0137713
 7,0.00707500,-0.00156390,-0.00048967,-0.00002186,0.00047620,0.00002698
 ,0.00018729,0.00088229,-0.00112306,-0.00260824,0.00750165,-0.00013485,
 -0.00030727,0.00013007,-0.00006609,-0.00019745,0.00031104,0.00001906,0
 .00022313,-0.00015080,0.00001324,0.00010051,-0.00006998,0.00042083,-0.
 00009659,0.00006754,0.00039818,-0.00022887,-0.00014319,0.00077520,0.00
 028635,-0.00037879,0.00020084,0.00027723,-0.00044773,0.00018214,0.0002
 2253,-0.00009832,-0.00091102,-0.00202478,0.00062704,-0.00003580,0.0001
 0659,-0.00030865,-0.00001845,-0.00008920,-0.00007980,0.00011297,0.0000
 7937,-0.00029630,0.02363995,-0.00035795,-0.00027571,0.00021034,0.00065
 528,0.00006138,-0.00012749,0.00545730,-0.00380428,0.00093436,-0.000282
 01,0.00088745,0.00257700,0.00006057,-0.00070179,-0.00043045,0.00026356
 ,0.00301216,-0.00532546,0.00007241,0.00014119,-0.00005512,0.00001862,0
 .00010483,-0.00016781,0.00003723,-0.00012451,0.00014969,-0.00002864,-0
 .00002964,0.00002814,-0.00018918,0.00003503,-0.00004247,-0.00019784,0.
 00012194,0.00006915,-0.00046263,0.00018309,0.00027010,0.00018742,-0.00
 011101,-0.00047729,0.00016359,-0.00006161,-0.00083713,-0.00164605,-0.0
 0279751,0.00082761,0.00002704,-0.00005209,0.00027117,0.00000735,0.0000
 3212,-0.00012196,-0.00007647,-0.00001149,0.00019372,-0.00679351,0.0124
 0394,0.00062598,0.00039151,-0.00041378,-0.00089925,-0.00018936,0.00050
 430,-0.00751685,0.00405726,-0.00048749,0.00013117,0.00079620,-0.000137
 85,-0.00000721,-0.00028952,-0.00164764,0.00302781,0.00353536,-0.015241
 69,-0.00006914,-0.00026521,0.00009346,-0.00005913,-0.00016699,0.000252
 27,-0.00008554,0.00026546,-0.00019645,0.00003159,0.00008494,-0.0000499
 9,0.00038111,-0.00008741,0.00004003,0.00031153,-0.00021267,-0.00009640
 ,0.00121783,-0.00007354,-0.00049944,-0.00010075,-0.00037767,0.00029325
 ,-0.00039770,-0.00042888,0.00020049,0.00118618,0.00230380,-0.00167234,
 0.00009839,-0.00018503,0.00050859,0.00003403,0.00012639,0.00012619,-0.
 00020449,-0.00011218,0.00053028,-0.00286429,0.00097526,0.02500101,-0.1
 3844652,-0.03165720,0.04977753,-0.21467194,0.04057693,0.02700865,-0.14
 474843,0.07634185,-0.01708038,0.00000688,0.00016401,-0.00003671,0.0000
 1041,-0.00003869,-0.00037292,0.00071305,0.00048329,-0.00243768,-0.0024
 7389,-0.00315940,0.00273704,0.00807232,0.00738331,-0.00290631,-0.02010
 974,-0.02267921,0.02295084,-0.01958374,0.00404642,0.00372793,-0.027483
 22,0.00832085,0.00375829,-0.01221602,0.00773858,0.00467019,0.00559497,
 -0.01673219,0.01182122,0.00003912,0.00001365,-0.00001630,-0.00014683,-
 0.00004871,0.00008236,0.00026076,0.00018035,0.00010263,0.00002681,-0.0
 0002956,0.00005757,0.00000026,0.00003154,0.00003440,-0.00005404,-0.000
 02344,0.00011252,0.00312017,-0.00104121,0.00294365,0.61522045,-0.02429
 415,-0.13122281,0.05666718,0.03518099,-0.10166729,0.01571990,0.0547649
 3,-0.26693529,0.13442656,-0.00004592,-0.00027277,0.00019888,0.00000314
 ,0.00001670,0.00044985,-0.00083459,-0.00038053,0.00262628,-0.02299508,
 -0.02372577,0.02935374,-0.00402885,-0.00647660,0.01233995,0.00420588,0
 .00801503,-0.00880283,-0.02335307,0.00732133,0.00207060,0.01106011,-0.
 00201855,0.00197202,0.03853993,-0.00798450,-0.00306790,0.00642715,-0.0
 1751695,0.01565216,-0.00004549,0.00004105,-0.00000436,0.00015011,0.000
 09779,-0.00014815,-0.00035802,-0.00022865,-0.00019730,-0.00002959,0.00
 003272,-0.00009946,-0.00000066,-0.00002349,-0.00004591,0.00005909,0.00
 003236,-0.00013450,-0.00439992,0.00204280,-0.00339720,-0.13367966,0.56
 715119,0.04351133,0.05731534,-0.12454180,0.03195736,0.01380366,-0.0804
 6543,-0.00394431,0.12773811,-0.13074300,0.00000804,0.00010574,-0.00009
 122,-0.00000315,0.00001742,-0.00020703,0.00034690,0.00013155,-0.001073
 04,-0.00156052,0.00395110,0.00623302,0.02397319,0.02622493,-0.02285587
 ,0.00352328,0.00100276,-0.00403476,0.02177545,-0.00736923,-0.00470419,
 -0.02747210,0.01056073,0.01066154,0.01351303,0.00016970,0.00126718,-0.
 00347799,0.02333176,-0.00668692,-0.00000286,-0.00002548,0.00000024,-0.
 00004893,-0.00004482,0.00006566,0.00013605,0.00009142,0.00010102,0.000
 01418,-0.00003036,0.00005576,0.00000189,0.00000892,0.00001671,-0.00001
 336,-0.00001728,0.00005545,0.00151482,-0.00070803,0.00130296,-0.084855
 00,-0.26202337,0.33802486,0.00014565,0.00003136,0.00001545,0.00010809,
 0.00001786,-0.00002241,0.00110785,-0.00055247,-0.00007754,-0.07080254,
 -0.02196788,-0.00670018,-0.06176048,-0.01016432,0.01333783,-0.05494449
 ,-0.05704755,0.01700402,-0.00003825,0.00004261,-0.00001635,-0.00000169
 ,0.00000339,-0.00002338,0.00000894,-0.00002927,-0.00001526,-0.00000685
 ,-0.00000538,0.00000694,-0.00002590,0.00000868,-0.00001035,-0.00003450
 ,0.00001885,0.00001002,-0.00017152,-0.00004316,-0.00000798,0.00505380,
 0.00967664,0.01017511,0.00309164,-0.03081069,-0.02037158,0.00068156,0.
 01097618,0.00439462,0.00839277,-0.00046853,-0.01964462,-0.00133449,0.0
 0123354,-0.00477624,0.00413527,-0.00378690,0.03282407,0.00041674,-0.00
 005529,-0.00068134,-0.00026403,0.00026881,-0.00004916,0.14718378,-0.00
 024020,-0.00008670,0.00012397,0.00014931,0.00007491,-0.00010975,0.0015
 0045,-0.00059141,-0.00010295,-0.02315285,-0.17636032,-0.04629927,-0.01
 128383,-0.10590967,0.00930946,-0.05520706,-0.34059426,0.04990744,0.000
 03268,0.00005737,-0.00000940,0.00001917,0.00002793,-0.00003602,-0.0000
 6537,-0.00014154,0.00004008,0.00001225,-0.00001338,0.00000221,-0.00007
 140,0.00001372,-0.00000626,-0.00005848,0.00003124,0.00002154,-0.000139
 41,0.00000380,0.00008449,-0.00546092,-0.03327780,-0.02298063,-0.008151
 60,-0.02036994,-0.01272823,0.00253954,0.00449646,-0.00056749,-0.004512
 13,-0.00373208,0.02886219,0.00371039,0.00532835,-0.03207603,-0.0024435
 3,-0.00244825,0.02060837,0.00287375,-0.00274269,-0.00478243,-0.0005814
 1,0.00061633,-0.00023802,0.11693644,0.72001092,0.00008046,0.00005311,-
 0.00009032,-0.00013120,-0.00004676,0.00007911,-0.00134533,0.00049764,0
 .00006703,-0.00712183,-0.05723315,-0.14407361,0.01544043,0.01711194,-0
 .22619332,0.01941116,0.07469350,-0.15273659,-0.00002177,-0.00003215,0.
 00000609,-0.00000655,-0.00002261,0.00003717,0.00009659,-0.00002691,0.0
 0000114,-0.00000315,0.00001268,-0.00000624,0.00005789,-0.00001230,0.00
 000737,0.00004784,-0.00002732,-0.00001714,0.00011801,0.00001656,-0.000
 04788,0.00350754,0.00823785,0.00733479,-0.00281311,-0.00631359,-0.0036
 3368,-0.00620042,-0.02979905,-0.02108797,0.00061852,0.00484116,-0.0245
 2710,0.00130686,0.00114550,-0.02088798,0.00502662,0.00328037,-0.019898
 53,-0.00236407,0.00217444,0.00310582,0.00046808,-0.00048567,0.00018443
 ,-0.03952723,-0.05968654,0.65365011,-0.01000688,-0.00601201,0.00585709
 ,0.01304872,0.00423099,-0.00278310,-0.56921379,0.13185954,0.07251294,-
 0.00013541,0.00100070,-0.00112844,0.00003540,0.00004523,-0.00161731,0.
 00197273,0.00156337,-0.00931587,0.00270319,0.00198681,-0.00122567,0.00
 262008,0.00119639,-0.00301428,0.00215839,0.00084461,-0.00181560,0.0000
 0934,-0.00118086,0.00052209,-0.00345126,0.00032936,-0.00024802,-0.0043
 4914,0.00187396,0.00110163,-0.03761773,0.01000648,0.01137176,0.0002643
 5,-0.00017524,-0.00003443,-0.00063654,-0.00037777,0.00080459,0.0000623
 2,0.00038179,0.00174316,0.00011992,-0.00017112,0.00038735,0.00002199,0
 .00008354,0.00016230,-0.00016785,-0.00013416,0.00045333,-0.00355807,0.
 00066662,-0.00085575,-0.05117221,0.06174066,-0.01818185,-0.00060865,-0
 .00219836,0.00129286,0.66559916,0.00320157,0.00214711,-0.00474384,-0.0
 0478015,-0.00023624,0.00946084,0.14298812,-0.12563555,-0.00370241,-0.0
 0009641,-0.00047406,-0.00051201,0.00000033,0.00009291,0.00054798,-0.00
 089807,-0.00137387,0.00455961,-0.00049229,-0.00104437,0.00027788,0.000
 71903,-0.00061499,0.00071182,0.00149299,-0.00182877,0.00017045,0.00047
 305,0.00044998,-0.00066186,0.00385448,-0.00120657,-0.00036492,0.001602
 77,-0.00060177,-0.00088908,-0.00647921,0.01695244,0.00135122,0.0000513
 3,0.00011955,-0.00009985,0.00008713,0.00015721,0.00010512,-0.00056449,
 -0.00052039,0.00021921,-0.00005027,0.00005962,-0.00015691,-0.00000866,
 -0.00002141,-0.00002386,0.00006758,0.00004758,-0.00017317,0.00157747,-
 0.00261157,0.00169917,0.06387259,-0.02631101,0.00579874,0.00015644,0.0
 0110292,-0.00083169,-0.21088335,0.14195969,-0.00063396,-0.00225499,-0.
 00188482,0.00323586,0.00694513,0.00521798,0.07481328,-0.00274670,-0.08
 845750,-0.00052570,-0.00053209,-0.00044478,-0.00006623,-0.00002917,0.0
 0051812,-0.00066982,0.00078769,0.00042216,-0.00167608,0.00006317,0.000
 52582,-0.00033601,0.00013366,-0.00013413,-0.00214224,0.00017944,0.0000
 0246,-0.00039631,-0.00021985,-0.00003781,0.00044965,-0.00066195,-0.000
 09255,-0.00246870,0.00086668,-0.00017268,0.02065239,-0.00360248,0.0121
 9339,-0.00010023,-0.00001776,0.00004939,0.00007202,0.00005044,0.000044
 13,0.00027132,-0.00021982,-0.00020332,-0.00009357,0.00003020,-0.000057
 71,-0.00001526,-0.00001096,-0.00001952,0.00004363,0.00004727,-0.000116
 53,-0.00468793,0.00214674,-0.00790052,-0.02457684,0.00910163,0.0166317
 6,0.00095877,-0.00036396,0.00003600,-0.06341793,-0.00948300,0.06345845
 ,-0.00038600,-0.00020813,0.00028602,0.00049894,0.00011800,-0.00034298,
 0.00431691,-0.00168684,0.00023373,-0.00318506,0.00267818,0.00114638,0.
 01067282,-0.00330732,-0.00060208,-0.06887513,-0.01193193,0.04261978,0.
 00005317,0.00015146,-0.00005919,0.00003154,0.00009222,-0.00014019,-0.0
 0001480,-0.00011120,0.00009605,0.00000017,-0.00003734,0.00001712,-0.00
 022978,0.00005959,-0.00002361,-0.00017333,0.00010401,0.00005704,-0.000
 57251,-0.00001241,0.00020673,-0.00010570,0.00002094,0.00072945,-0.0001
 7522,-0.00040285,-0.00127374,-0.00075708,-0.00048362,-0.00030723,-0.00
 063008,-0.00076267,0.00258220,-0.00029158,0.00021874,0.00004759,-0.000
 27216,0.00071798,-0.00134980,-0.00914594,0.00364551,0.00328688,-0.0017
 5350,0.00174020,-0.00069458,0.01243254,-0.00726977,0.01531842,-0.00807
 597,0.00422833,0.00137352,0.05126304,0.00004275,0.00007716,-0.00004682
 ,-0.00018957,-0.00003486,0.00006406,-0.00118488,0.00095966,-0.00025485
 ,0.00289408,0.00356217,0.00182447,-0.00220770,-0.00517840,-0.00493727,
 -0.01136272,-0.11232964,0.08154987,-0.00001121,-0.00004702,0.00001660,
 0.00001254,-0.00003958,0.00004597,-0.00008545,0.00008324,-0.00008216,0
 .00000347,0.00001264,-0.00001001,0.00006588,-0.00001950,0.00001272,0.0
 0006079,-0.00003434,-0.00001453,0.00031666,-0.00004420,-0.00008036,-0.
 00054235,-0.00020221,0.00153955,-0.00077595,-0.00018492,-0.00010321,-0
 .00072206,-0.00140788,0.00265288,0.00003248,-0.00020891,0.00223789,0.0
 0013090,0.00065084,0.00060402,-0.00035677,-0.00033949,0.00278617,0.003
 99161,-0.00581420,-0.00405428,0.00047315,-0.00055560,0.00018276,-0.007
 97831,-0.01423905,0.06355452,0.00317370,-0.00058684,-0.00024105,0.0123
 6259,0.12019181,0.00048306,0.00022495,-0.00032539,-0.00052796,-0.00019
 112,0.00031194,-0.00488138,0.00209966,0.00020703,0.00226637,-0.0103961
 0,-0.00984537,0.00053823,0.00519954,0.01323622,0.03996054,0.06719653,-
 0.61108510,-0.00008357,-0.00013904,0.00007048,-0.00002788,-0.00010735,
 0.00015846,0.00016108,0.00008274,-0.00007881,-0.00000305,0.00004679,-0
 .00002750,0.00023698,-0.00005418,0.00003217,0.00019598,-0.00011207,-0.
 00006218,0.00052288,0.00003805,-0.00023489,-0.00122984,0.00211415,0.00
 265887,0.00115690,0.00324851,0.00307767,-0.00099407,0.00178228,0.00333
 841,-0.00044651,0.00091249,-0.00419824,-0.00022889,-0.00113075,0.00011
 501,0.00127548,0.00042519,-0.00428433,0.00351254,-0.00295324,-0.004857
 44,0.00184746,-0.00197079,0.00072753,0.01144584,0.06410571,-0.05669112
 ,0.00669866,-0.00302561,0.00037695,-0.06416472,-0.12945706,0.71095944,
 0.00002409,0.00001440,-0.00000338,-0.00002685,-0.00000965,0.00000986,-
 0.00014383,0.00008945,0.00000197,0.00806099,-0.00218357,0.00135629,-0.
 00214258,0.00000616,-0.00096710,-0.05870478,-0.01701614,-0.01370305,-0
 .00000551,-0.00000532,-0.00000030,-0.00000474,-0.00000189,0.00000664,-
 0.00001566,0.00000367,-0.00001211,0.00000223,0.00000410,-0.00000317,0.
 00001017,-0.00000239,0.00000159,0.00000846,-0.00000619,-0.00000254,0.0
 0002755,0.00000075,-0.00001073,-0.00015270,-0.00128368,-0.00149275,-0.
 00031366,0.00149358,0.00116039,-0.00005178,-0.00047726,0.00014647,0.00
 012352,0.00043399,0.00011291,-0.00012572,0.00009134,0.00030891,-0.0000
 6209,-0.00040938,-0.00000302,0.00013237,-0.00013174,0.00046529,0.00005
 892,-0.00007598,0.00002828,0.00723476,-0.00693768,-0.00325661,0.000377
 93,-0.00012030,-0.00006362,0.01537471,0.00185636,0.00228585,0.03031419
 ,0.00000404,0.00001482,-0.00000099,-0.00001845,-0.00000350,0.00000111,
 -0.00014882,0.00009083,-0.00000467,-0.00114572,-0.00071124,0.00448665,
 0.00025125,-0.00070599,-0.00278628,-0.01677633,-0.18323337,-0.10592407
 ,-0.00000367,-0.00000479,0.00000009,0.00000675,-0.00000278,0.00000334,
 -0.00003145,0.00000185,-0.00001649,-0.00000158,0.00000036,0.00000108,0
 .00000296,-0.00000119,0.00000085,0.00000357,0.00000198,-0.00000040,0.0
 0001951,0.00000025,-0.00001305,-0.00031911,-0.00090330,-0.00051149,-0.
 00003039,-0.00087923,-0.00046474,0.00007752,0.00047292,-0.00015953,-0.
 00000475,0.00009525,0.00024265,-0.00002279,0.00031525,0.00127733,0.000
 00849,0.00024012,0.00024872,-0.00034691,0.00011219,0.00038701,0.000044
 16,-0.00004747,0.00002195,-0.00646106,-0.03125687,-0.02110152,0.000149
 11,-0.00002160,0.00003175,0.00007632,0.01572911,0.00206070,0.02466737,
 0.20069640,0.00003400,0.00002494,-0.00002806,-0.00005954,-0.00001679,0
 .00002239,-0.00052469,0.00027604,0.00000071,0.00096909,0.00260740,-0.0
 0017294,0.00050488,0.00403538,0.00104697,-0.01685662,-0.11863551,-0.15
 019403,-0.00000465,-0.00001360,0.00000773,0.00000040,-0.00001342,0.000
 01440,-0.00001019,0.00001206,-0.00001527,0.00000133,0.00000455,-0.0000
 0348,0.00002397,-0.00000639,0.00000543,0.00002126,-0.00001100,-0.00000
 580,0.00007038,-0.00000067,-0.00002756,0.00011068,0.00022326,0.0003133
 7,-0.00012865,0.00016158,0.00007134,-0.00006999,0.00007945,-0.00005700
 ,0.00002199,-0.00007168,0.00016216,0.00016993,0.00006009,-0.00026821,-
 0.00004170,-0.00005087,0.00018101,-0.00148623,0.00041872,0.00124241,0.
 00018180,-0.00020131,0.00007513,0.00175094,0.00692154,0.00538241,0.000
 73049,-0.00023386,0.00004527,0.00095721,-0.01778988,-0.04357980,0.0136
 3394,0.12221999,0.18578142\\-0.00088457,-0.00022017,0.00051528,0.00171
 737,-0.00031475,-0.00022884,0.00973842,-0.00698799,0.00096750,0.000165
 83,-0.00055012,-0.00065919,-0.00000530,-0.00013514,0.00108495,-0.00102
 757,-0.00292201,0.00696139,-0.00002678,0.00048694,-0.00035658,-0.00016
 712,0.00011233,-0.00058330,0.00051768,-0.00027682,0.00018700,-0.000054
 77,-0.00043408,0.00031775,-0.00046531,0.00024751,-0.00035750,-0.000554
 60,0.00096045,0.00061413,-0.00078364,-0.00077896,-0.00054963,-0.000302
 46,0.00003435,-0.00064167,0.00085048,0.00050496,-0.00024988,-0.0015669
 0,-0.00090489,0.00268959,-0.00009980,0.00018794,-0.00029908,-0.0000206
 8,-0.00011934,-0.00019682,0.00014749,0.00010130,-0.00032325,0.00239575
 ,0.00236335,0.01246102,-0.00230769,0.00539996,-0.00114310,0.00077331,0
 .00219248,-0.00258723,-0.00856964,0.00168898,-0.00625186,0.00050973,-0
 .00035285,-0.01012839,0.00002077,-0.00028344,-0.00124230\\\@
 The archive entry for this job was punched.


 THE WORLD OF CHEMICAL REACTIONS IS LIKE A STAGE,
 ON WHICH SCENE AFTER SCENE IS CEASELESSLY PLAYED.
 THE ACTORS ON IT ARE THE ELEMENTS.
   -- CLEMENS WINKLER   BER. 30,13(1897)
 (DISCOVERER OF GERMANIUM, FEB 6, 1886)
 Job cpu time:       0 days  7 hours  8 minutes 40.6 seconds.
 Elapsed time:       0 days  0 hours  4 minutes 35.2 seconds.
 File lengths (MBytes):  RWF=    339 Int=      0 D2E=      0 Chk=     33 Scr=      1
 Normal termination of Gaussian 16 at Tue Sep 23 05:37:23 2025.
25664.40user 56.24system 4:37.80elapsed 9258%CPU (0avgtext+0avgdata 21136828maxresident)k
360inputs+201904outputs (4571major+1083222minor)pagefaults 0swaps
