 Entering Gaussian System, Link 0=g16
 Initial command:
 /common/software/install/migrated/gaussian/g16.c01.avx2/g16/l1.exe "/tmp/quach062/44781379/Gau-2911859.inp" -scrdir="/tmp/quach062/44781379/"
 Entering Link 1 = /common/software/install/migrated/gaussian/g16.c01.avx2/g16/l1.exe PID=   2911860.
  
 Copyright (c) 1988-2019, Gaussian, Inc.  All Rights Reserved.
  
 This is part of the Gaussian(R) 16 program.  It is based on
 the Gaussian(R) 09 system (copyright 2009, Gaussian, Inc.),
 the Gaussian(R) 03 system (copyright 2003, Gaussian, Inc.),
 the Gaussian(R) 98 system (copyright 1998, Gaussian, Inc.),
 the Gaussian(R) 94 system (copyright 1995, Gaussian, Inc.),
 the Gaussian 92(TM) system (copyright 1992, Gaussian, Inc.),
 the Gaussian 90(TM) system (copyright 1990, Gaussian, Inc.),
 the Gaussian 88(TM) system (copyright 1988, Gaussian, Inc.),
 the Gaussian 86(TM) system (copyright 1986, Carnegie Mellon
 University), and the Gaussian 82(TM) system (copyright 1983,
 Carnegie Mellon University). Gaussian is a federally registered
 trademark of Gaussian, Inc.
  
 This software contains proprietary and confidential information,
 including trade secrets, belonging to Gaussian, Inc.
  
 This software is provided under written license and may be
 used, copied, transmitted, or stored only in accord with that
 written license.
  
 The following legend is applicable only to US Government
 contracts under FAR:
  
                    RESTRICTED RIGHTS LEGEND
  
 Use, reproduction and disclosure by the US Government is
 subject to restrictions as set forth in subparagraphs (a)
 and (c) of the Commercial Computer Software - Restricted
 Rights clause in FAR 52.227-19.
  
 Gaussian, Inc.
 340 Quinnipiac St., Bldg. 40, Wallingford CT 06492
  
  
 ---------------------------------------------------------------
 Warning -- This program may not be used in any manner that
 competes with the business of Gaussian, Inc. or will provide
 assistance to any competitor of Gaussian, Inc.  The licensee
 of this program is prohibited from giving any competitor of
 Gaussian, Inc. access to this program.  By using this program,
 the user acknowledges that Gaussian, Inc. is engaged in the
 business of creating and licensing software in the field of
 computational chemistry and represents and warrants to the
 licensee that it is not a competitor of Gaussian, Inc. and that
 it will not use this program in any manner prohibited above.
 ---------------------------------------------------------------
  

 Cite this work as:
 Gaussian 16, Revision C.01,
 M. J. Frisch, G. W. Trucks, H. B. Schlegel, G. E. Scuseria, 
 M. A. Robb, J. R. Cheeseman, G. Scalmani, V. Barone, 
 G. A. Petersson, H. Nakatsuji, X. Li, M. Caricato, A. V. Marenich, 
 J. Bloino, B. G. Janesko, R. Gomperts, B. Mennucci, H. P. Hratchian, 
 J. V. Ortiz, A. F. Izmaylov, J. L. Sonnenberg, D. Williams-Young, 
 F. Ding, F. Lipparini, F. Egidi, J. Goings, B. Peng, A. Petrone, 
 T. Henderson, D. Ranasinghe, V. G. Zakrzewski, J. Gao, N. Rega, 
 G. Zheng, W. Liang, M. Hada, M. Ehara, K. Toyota, R. Fukuda, 
 J. Hasegawa, M. Ishida, T. Nakajima, Y. Honda, O. Kitao, H. Nakai, 
 T. Vreven, K. Throssell, J. A. Montgomery, Jr., J. E. Peralta, 
 F. Ogliaro, M. J. Bearpark, J. J. Heyd, E. N. Brothers, K. N. Kudin, 
 V. N. Staroverov, T. A. Keith, R. Kobayashi, J. Normand, 
 K. Raghavachari, A. P. Rendell, J. C. Burant, S. S. Iyengar, 
 J. Tomasi, M. Cossi, J. M. Millam, M. Klene, C. Adamo, R. Cammi, 
 J. W. Ochterski, R. L. Martin, K. Morokuma, O. Farkas, 
 J. B. Foresman, and D. J. Fox, Gaussian, Inc., Wallingford CT, 2019.
 
 ******************************************
 Gaussian 16:  ES64L-G16RevC.01  3-Jul-2019
                10-Dec-2025 
 ******************************************
 %chk=CoIIIH_S_CA.chk
 %nprocshared=96
 Will use up to   96 processors via shared memory.
 %mem=59800MB
 ----------------------------------------------------------------------
 # opt=calcall # freq # pop=hirshfeld # m06l/genecp/auto # nosymm integ
 ral=grid=ultrafine # scf=(tight,intrep,xqc) # SCRF=(SMD,Solvent=n,n-Di
 MethylFormamide)
 ----------------------------------------------------------------------
 1/10=4,18=20,19=15,26=6,38=1/1,3;
 2/9=110,12=2,15=1,17=6,18=5,40=1/2;
 3/5=7,11=2,16=1,17=8,25=1,30=1,70=32201,71=2,72=148,74=-53,75=-5,82=28,140=1/1,2,3;
 4//1;
 5/5=2,8=3,13=1,17=20,32=2,38=5,53=148/2,8;
 8/6=4,10=90,11=11/1;
 11/6=1,8=1,9=11,15=111,16=1,31=1/1,2,10;
 10/6=1,31=1/2;
 6/7=2,8=2,9=2,10=2,18=1,28=1,79=1/1;
 7/10=1,25=1,30=1/1,2,3,16;
 1/10=4,18=20,19=15,26=6/3(3);
 2/9=110,15=1/2;
 7/8=1,9=1,25=1,30=1,44=-1/16;
 99//99;
 2/9=110,15=1/2;
 3/5=7,6=1,11=2,16=1,17=8,25=1,30=1,70=32205,71=2,72=148,74=-53,75=-5,82=7,140=1/1,2,3;
 4/5=5,16=3,69=1/1;
 5/5=2,8=3,13=1,17=20,32=2,38=5,53=148/2,8;
 8/6=4,10=90,11=11/1;
 11/6=1,8=1,9=11,15=111,16=1,31=1/1,2,10;
 10/6=1,31=1/2;
 7/10=1,25=1,30=1/1,2,3,16;
 1/10=4,18=20,19=15,26=6/3(-8);
 2/9=110,15=1/2;
 6/7=2,8=2,9=2,10=2,18=1,19=2,28=1,79=1/1;
 7/8=1,9=1,25=1,30=1,44=-1/16;
 99//99;
 -----------
 Input: Co-H
 -----------
 Symbolic Z-matrix:
 Charge =  0 Multiplicity = 1
 Co                    0.06224   0.34511  -1.51771 
 O                     1.2555   -1.11993  -1.69603 
 O                    -1.28516  -0.95179  -1.22825 
 N                     1.32534   1.58355  -2.13654 
 N                    -1.11716   1.80549  -1.3701 
 C                     3.30685  -2.29013  -1.71569 
 C                    -3.41333  -1.89871  -0.83641 
 C                     2.54115  -1.08395  -1.87614 
 C                    -2.55021  -0.76493  -0.99118 
 C                     3.24203   0.10497  -2.25255 
 C                    -3.13518   0.53806  -0.89233 
 C                     5.365    -1.08576  -2.39458 
 C                    -5.34303  -0.3987   -0.43161 
 C                     2.63168  -3.57144  -1.21475 
 C                    -2.86231  -3.31986  -1.00293 
 C                     4.664    -2.24403  -1.98516 
 C                    -4.75675  -1.67361  -0.56132 
 C                     4.63153   0.0737   -2.51163 
 C                    -4.50768   0.68666  -0.61 
 C                     6.86465  -1.17383  -2.67115 
 C                    -6.8266   -0.19221  -0.11621 
 C                     2.57331   1.35536  -2.40861 
 C                    -2.37791   1.7371   -1.08005 
 C                     0.73432   2.89414  -2.43336 
 C                    -0.39561   3.10043  -1.42442 
 C                     1.49794  -4.00358  -2.15721 
 C                     2.06864  -3.3249    0.19427 
 C                     3.61615  -4.7383   -1.1192 
 C                    -1.72878  -3.58723  -0.0012 
 C                    -3.93635  -4.38457  -0.77162 
 C                    -2.33636  -3.50103  -2.43561 
 C                     7.44849   0.17537  -3.08467 
 C                     7.59418  -1.65174  -1.40839 
 C                     7.11738  -2.17973  -3.80237 
 C                    -7.48279   0.61724  -1.24244 
 C                    -6.96537   0.58509   1.19951 
 C                    -7.57863  -1.51468   0.02578 
 C                     0.21266   2.9078   -3.87137 
 C                    -1.22749   4.33139  -1.75785 
 C                    -0.57821   4.17288  -4.17151 
 C                    -1.73559   4.33233  -3.19396 
 H                     5.23939  -3.15685  -1.86897 
 H                    -5.39728  -2.538    -0.43936 
 H                     5.10244   1.00656  -2.80881 
 H                    -4.89738   1.7005   -0.53703 
 H                     3.17023   2.18924  -2.7918 
 H                    -2.93678   2.66851  -0.96547 
 H                     1.48778   3.68153  -2.30478 
 H                     0.0568    3.22475  -0.4319 
 H                     1.05835  -4.94395  -1.80611 
 H                     0.71058  -3.25232  -2.207 
 H                     1.87607  -4.17608  -3.17103 
 H                     2.87392  -3.08459   0.89682 
 H                     1.35004  -2.50372   0.20184 
 H                     1.56402  -4.224     0.56511 
 H                     3.09065  -5.62498  -0.75176 
 H                     4.05035  -4.99472  -2.09104 
 H                     4.43773  -4.53535  -0.42506 
 H                    -1.36671  -4.61553  -0.1125 
 H                    -0.89088  -2.90821  -0.1556 
 H                    -2.08188  -3.47277   1.02965 
 H                    -3.49373  -5.37699  -0.90077 
 H                    -4.35243  -4.3412    0.24006 
 H                    -4.76534  -4.30318  -1.48163 
 H                    -3.14364  -3.37562  -3.16529 
 H                    -1.54904  -2.78283  -2.66798 
 H                    -1.92723  -4.50931  -2.56517 
 H                     8.52124   0.07389  -3.27471 
 H                     6.98739   0.55757  -4.00078 
 H                     7.32322   0.93222  -2.30395 
 H                     8.6711   -1.72767  -1.59255 
 H                     7.44516  -0.95507  -0.57712 
 H                     7.24586  -2.63705  -1.08486 
 H                     6.74956  -3.17829  -3.54827 
 H                     6.62293  -1.86744  -4.72789 
 H                     8.18966  -2.26594  -4.00816 
 H                    -8.54452   0.78277  -1.03014 
 H                    -7.01385   1.59821  -1.36284 
 H                    -7.41127   0.09301  -2.20092 
 H                    -6.51308   0.03776   2.03283 
 H                    -6.48279   1.56522   1.1429 
 H                    -8.02106   0.7497    1.4409 
 H                    -8.63149  -1.3184    0.24996 
 H                    -7.54473  -2.10806  -0.89336 
 H                    -7.1799   -2.12969   0.83861 
 H                    -0.42878   2.02658  -4.01245 
 H                     1.05906   2.79224  -4.55628 
 H                    -0.57333   5.19856  -1.60533 
 H                    -2.04358   4.45057  -1.0395 
 H                    -0.94317   4.14677  -5.20289 
 H                     0.08438   5.04588  -4.09743 
 H                    -2.28364   5.25871  -3.39108 
 H                    -2.45134   3.51256  -3.33984 
 H                     0.42905   0.54334  -0.14184 
 

 GradGradGradGradGradGradGradGradGradGradGradGradGradGradGradGradGradGrad
 Berny optimization.
 Initialization pass.
                           ----------------------------
                           !    Initial Parameters    !
                           ! (Angstroms and Degrees)  !
 --------------------------                            --------------------------
 ! Name  Definition              Value          Derivative Info.                !
 --------------------------------------------------------------------------------
 ! R1    R(1,2)                  1.8979         calculate D2E/DX2 analytically  !
 ! R2    R(1,3)                  1.8924         calculate D2E/DX2 analytically  !
 ! R3    R(1,4)                  1.8741         calculate D2E/DX2 analytically  !
 ! R4    R(1,5)                  1.8829         calculate D2E/DX2 analytically  !
 ! R5    R(1,94)                 1.4377         calculate D2E/DX2 analytically  !
 ! R6    R(2,8)                  1.2987         calculate D2E/DX2 analytically  !
 ! R7    R(3,9)                  1.3006         calculate D2E/DX2 analytically  !
 ! R8    R(4,22)                 1.2975         calculate D2E/DX2 analytically  !
 ! R9    R(4,24)                 1.468          calculate D2E/DX2 analytically  !
 ! R10   R(5,23)                 1.2955         calculate D2E/DX2 analytically  !
 ! R11   R(5,25)                 1.4834         calculate D2E/DX2 analytically  !
 ! R12   R(6,8)                  1.4377         calculate D2E/DX2 analytically  !
 ! R13   R(6,14)                 1.5325         calculate D2E/DX2 analytically  !
 ! R14   R(6,16)                 1.3844         calculate D2E/DX2 analytically  !
 ! R15   R(7,9)                  1.4333         calculate D2E/DX2 analytically  !
 ! R16   R(7,15)                 1.5333         calculate D2E/DX2 analytically  !
 ! R17   R(7,17)                 1.3896         calculate D2E/DX2 analytically  !
 ! R18   R(8,10)                 1.4305         calculate D2E/DX2 analytically  !
 ! R19   R(9,11)                 1.4317         calculate D2E/DX2 analytically  !
 ! R20   R(10,18)                1.4138         calculate D2E/DX2 analytically  !
 ! R21   R(10,22)                1.4265         calculate D2E/DX2 analytically  !
 ! R22   R(11,19)                1.4091         calculate D2E/DX2 analytically  !
 ! R23   R(11,23)                1.4305         calculate D2E/DX2 analytically  !
 ! R24   R(12,16)                1.4144         calculate D2E/DX2 analytically  !
 ! R25   R(12,18)                1.377          calculate D2E/DX2 analytically  !
 ! R26   R(12,20)                1.5275         calculate D2E/DX2 analytically  !
 ! R27   R(13,17)                1.4092         calculate D2E/DX2 analytically  !
 ! R28   R(13,19)                1.3812         calculate D2E/DX2 analytically  !
 ! R29   R(13,21)                1.5307         calculate D2E/DX2 analytically  !
 ! R30   R(14,26)                1.5364         calculate D2E/DX2 analytically  !
 ! R31   R(14,27)                1.5372         calculate D2E/DX2 analytically  !
 ! R32   R(14,28)                1.5297         calculate D2E/DX2 analytically  !
 ! R33   R(15,29)                1.5362         calculate D2E/DX2 analytically  !
 ! R34   R(15,30)                1.5299         calculate D2E/DX2 analytically  !
 ! R35   R(15,31)                1.5369         calculate D2E/DX2 analytically  !
 ! R36   R(16,42)                1.0853         calculate D2E/DX2 analytically  !
 ! R37   R(17,43)                1.0827         calculate D2E/DX2 analytically  !
 ! R38   R(18,44)                1.0864         calculate D2E/DX2 analytically  !
 ! R39   R(19,45)                1.0886         calculate D2E/DX2 analytically  !
 ! R40   R(20,32)                1.5272         calculate D2E/DX2 analytically  !
 ! R41   R(20,33)                1.5347         calculate D2E/DX2 analytically  !
 ! R42   R(20,34)                1.5347         calculate D2E/DX2 analytically  !
 ! R43   R(21,35)                1.5343         calculate D2E/DX2 analytically  !
 ! R44   R(21,36)                1.5345         calculate D2E/DX2 analytically  !
 ! R45   R(21,37)                1.528          calculate D2E/DX2 analytically  !
 ! R46   R(22,46)                1.0948         calculate D2E/DX2 analytically  !
 ! R47   R(23,47)                1.0922         calculate D2E/DX2 analytically  !
 ! R48   R(24,25)                1.5288         calculate D2E/DX2 analytically  !
 ! R49   R(24,38)                1.5298         calculate D2E/DX2 analytically  !
 ! R50   R(24,48)                1.0974         calculate D2E/DX2 analytically  !
 ! R51   R(25,39)                1.5227         calculate D2E/DX2 analytically  !
 ! R52   R(25,49)                1.0978         calculate D2E/DX2 analytically  !
 ! R53   R(26,50)                1.0958         calculate D2E/DX2 analytically  !
 ! R54   R(26,51)                1.0894         calculate D2E/DX2 analytically  !
 ! R55   R(26,52)                1.0957         calculate D2E/DX2 analytically  !
 ! R56   R(27,53)                1.0954         calculate D2E/DX2 analytically  !
 ! R57   R(27,54)                1.0912         calculate D2E/DX2 analytically  !
 ! R58   R(27,55)                1.0957         calculate D2E/DX2 analytically  !
 ! R59   R(28,56)                1.0942         calculate D2E/DX2 analytically  !
 ! R60   R(28,57)                1.0949         calculate D2E/DX2 analytically  !
 ! R61   R(28,58)                1.0945         calculate D2E/DX2 analytically  !
 ! R62   R(29,59)                1.0958         calculate D2E/DX2 analytically  !
 ! R63   R(29,60)                1.0895         calculate D2E/DX2 analytically  !
 ! R64   R(29,61)                1.0956         calculate D2E/DX2 analytically  !
 ! R65   R(30,62)                1.0943         calculate D2E/DX2 analytically  !
 ! R66   R(30,63)                1.0948         calculate D2E/DX2 analytically  !
 ! R67   R(30,64)                1.0945         calculate D2E/DX2 analytically  !
 ! R68   R(31,65)                1.0954         calculate D2E/DX2 analytically  !
 ! R69   R(31,66)                1.0907         calculate D2E/DX2 analytically  !
 ! R70   R(31,67)                1.0958         calculate D2E/DX2 analytically  !
 ! R71   R(32,68)                1.0942         calculate D2E/DX2 analytically  !
 ! R72   R(32,69)                1.0945         calculate D2E/DX2 analytically  !
 ! R73   R(32,70)                1.0945         calculate D2E/DX2 analytically  !
 ! R74   R(33,71)                1.0952         calculate D2E/DX2 analytically  !
 ! R75   R(33,72)                1.0948         calculate D2E/DX2 analytically  !
 ! R76   R(33,73)                1.094          calculate D2E/DX2 analytically  !
 ! R77   R(34,74)                1.0941         calculate D2E/DX2 analytically  !
 ! R78   R(34,75)                1.0948         calculate D2E/DX2 analytically  !
 ! R79   R(34,76)                1.0952         calculate D2E/DX2 analytically  !
 ! R80   R(35,77)                1.0953         calculate D2E/DX2 analytically  !
 ! R81   R(35,78)                1.0939         calculate D2E/DX2 analytically  !
 ! R82   R(35,79)                1.0948         calculate D2E/DX2 analytically  !
 ! R83   R(36,80)                1.0948         calculate D2E/DX2 analytically  !
 ! R84   R(36,81)                1.094          calculate D2E/DX2 analytically  !
 ! R85   R(36,82)                1.0954         calculate D2E/DX2 analytically  !
 ! R86   R(37,83)                1.0942         calculate D2E/DX2 analytically  !
 ! R87   R(37,84)                1.0946         calculate D2E/DX2 analytically  !
 ! R88   R(37,85)                1.0945         calculate D2E/DX2 analytically  !
 ! R89   R(38,40)                1.5218         calculate D2E/DX2 analytically  !
 ! R90   R(38,86)                1.099          calculate D2E/DX2 analytically  !
 ! R91   R(38,87)                1.0949         calculate D2E/DX2 analytically  !
 ! R92   R(39,41)                1.5233         calculate D2E/DX2 analytically  !
 ! R93   R(39,88)                1.0969         calculate D2E/DX2 analytically  !
 ! R94   R(39,89)                1.0937         calculate D2E/DX2 analytically  !
 ! R95   R(40,41)                1.5233         calculate D2E/DX2 analytically  !
 ! R96   R(40,90)                1.0944         calculate D2E/DX2 analytically  !
 ! R97   R(40,91)                1.0985         calculate D2E/DX2 analytically  !
 ! R98   R(41,92)                1.0943         calculate D2E/DX2 analytically  !
 ! R99   R(41,93)                1.098          calculate D2E/DX2 analytically  !
 ! A1    A(2,1,3)               86.1586         calculate D2E/DX2 analytically  !
 ! A2    A(2,1,4)               93.1719         calculate D2E/DX2 analytically  !
 ! A3    A(2,1,94)              92.0594         calculate D2E/DX2 analytically  !
 ! A4    A(3,1,5)               94.2188         calculate D2E/DX2 analytically  !
 ! A5    A(3,1,94)              97.4563         calculate D2E/DX2 analytically  !
 ! A6    A(4,1,5)               86.3029         calculate D2E/DX2 analytically  !
 ! A7    A(4,1,94)              93.0343         calculate D2E/DX2 analytically  !
 ! A8    A(5,1,94)              88.7307         calculate D2E/DX2 analytically  !
 ! A9    A(1,2,8)              127.8835         calculate D2E/DX2 analytically  !
 ! A10   A(1,3,9)              128.4602         calculate D2E/DX2 analytically  !
 ! A11   A(1,4,22)             126.9621         calculate D2E/DX2 analytically  !
 ! A12   A(1,4,24)             112.6675         calculate D2E/DX2 analytically  !
 ! A13   A(22,4,24)            120.1215         calculate D2E/DX2 analytically  !
 ! A14   A(1,5,23)             125.8856         calculate D2E/DX2 analytically  !
 ! A15   A(1,5,25)             111.6853         calculate D2E/DX2 analytically  !
 ! A16   A(23,5,25)            121.8473         calculate D2E/DX2 analytically  !
 ! A17   A(8,6,14)             120.2187         calculate D2E/DX2 analytically  !
 ! A18   A(8,6,16)             118.1931         calculate D2E/DX2 analytically  !
 ! A19   A(14,6,16)            121.5579         calculate D2E/DX2 analytically  !
 ! A20   A(9,7,15)             120.333          calculate D2E/DX2 analytically  !
 ! A21   A(9,7,17)             118.3853         calculate D2E/DX2 analytically  !
 ! A22   A(15,7,17)            121.2685         calculate D2E/DX2 analytically  !
 ! A23   A(2,8,6)              119.2437         calculate D2E/DX2 analytically  !
 ! A24   A(2,8,10)             122.9919         calculate D2E/DX2 analytically  !
 ! A25   A(6,8,10)             117.7561         calculate D2E/DX2 analytically  !
 ! A26   A(3,9,7)              119.4571         calculate D2E/DX2 analytically  !
 ! A27   A(3,9,11)             122.7365         calculate D2E/DX2 analytically  !
 ! A28   A(7,9,11)             117.8016         calculate D2E/DX2 analytically  !
 ! A29   A(8,10,18)            120.7538         calculate D2E/DX2 analytically  !
 ! A30   A(8,10,22)            121.8434         calculate D2E/DX2 analytically  !
 ! A31   A(18,10,22)           117.3904         calculate D2E/DX2 analytically  !
 ! A32   A(9,11,19)            120.5168         calculate D2E/DX2 analytically  !
 ! A33   A(9,11,23)            122.5127         calculate D2E/DX2 analytically  !
 ! A34   A(19,11,23)           116.969          calculate D2E/DX2 analytically  !
 ! A35   A(16,12,18)           116.7539         calculate D2E/DX2 analytically  !
 ! A36   A(16,12,20)           119.4569         calculate D2E/DX2 analytically  !
 ! A37   A(18,12,20)           123.788          calculate D2E/DX2 analytically  !
 ! A38   A(17,13,19)           116.5781         calculate D2E/DX2 analytically  !
 ! A39   A(17,13,21)           122.9712         calculate D2E/DX2 analytically  !
 ! A40   A(19,13,21)           120.4501         calculate D2E/DX2 analytically  !
 ! A41   A(6,14,26)            111.086          calculate D2E/DX2 analytically  !
 ! A42   A(6,14,27)            109.0801         calculate D2E/DX2 analytically  !
 ! A43   A(6,14,28)            112.0036         calculate D2E/DX2 analytically  !
 ! A44   A(26,14,27)           109.7003         calculate D2E/DX2 analytically  !
 ! A45   A(26,14,28)           107.3784         calculate D2E/DX2 analytically  !
 ! A46   A(27,14,28)           107.5063         calculate D2E/DX2 analytically  !
 ! A47   A(7,15,29)            110.8352         calculate D2E/DX2 analytically  !
 ! A48   A(7,15,30)            112.1055         calculate D2E/DX2 analytically  !
 ! A49   A(7,15,31)            109.4799         calculate D2E/DX2 analytically  !
 ! A50   A(29,15,30)           107.3555         calculate D2E/DX2 analytically  !
 ! A51   A(29,15,31)           109.563          calculate D2E/DX2 analytically  !
 ! A52   A(30,15,31)           107.4062         calculate D2E/DX2 analytically  !
 ! A53   A(6,16,12)            124.7121         calculate D2E/DX2 analytically  !
 ! A54   A(6,16,42)            118.0922         calculate D2E/DX2 analytically  !
 ! A55   A(12,16,42)           117.194          calculate D2E/DX2 analytically  !
 ! A56   A(7,17,13)            124.5378         calculate D2E/DX2 analytically  !
 ! A57   A(7,17,43)            117.703          calculate D2E/DX2 analytically  !
 ! A58   A(13,17,43)           117.7592         calculate D2E/DX2 analytically  !
 ! A59   A(10,18,12)           121.7736         calculate D2E/DX2 analytically  !
 ! A60   A(10,18,44)           117.2028         calculate D2E/DX2 analytically  !
 ! A61   A(12,18,44)           121.0236         calculate D2E/DX2 analytically  !
 ! A62   A(11,19,13)           122.1478         calculate D2E/DX2 analytically  !
 ! A63   A(11,19,45)           117.4087         calculate D2E/DX2 analytically  !
 ! A64   A(13,19,45)           120.4434         calculate D2E/DX2 analytically  !
 ! A65   A(12,20,32)           111.9277         calculate D2E/DX2 analytically  !
 ! A66   A(12,20,33)           109.6138         calculate D2E/DX2 analytically  !
 ! A67   A(12,20,34)           109.4465         calculate D2E/DX2 analytically  !
 ! A68   A(32,20,33)           108.4325         calculate D2E/DX2 analytically  !
 ! A69   A(32,20,34)           108.4518         calculate D2E/DX2 analytically  !
 ! A70   A(33,20,34)           108.9112         calculate D2E/DX2 analytically  !
 ! A71   A(13,21,35)           109.5374         calculate D2E/DX2 analytically  !
 ! A72   A(13,21,36)           109.4305         calculate D2E/DX2 analytically  !
 ! A73   A(13,21,37)           112.2973         calculate D2E/DX2 analytically  !
 ! A74   A(35,21,36)           108.8722         calculate D2E/DX2 analytically  !
 ! A75   A(35,21,37)           108.3205         calculate D2E/DX2 analytically  !
 ! A76   A(36,21,37)           108.3152         calculate D2E/DX2 analytically  !
 ! A77   A(4,22,10)            125.5969         calculate D2E/DX2 analytically  !
 ! A78   A(4,22,46)            117.6372         calculate D2E/DX2 analytically  !
 ! A79   A(10,22,46)           116.766          calculate D2E/DX2 analytically  !
 ! A80   A(5,23,11)            126.0716         calculate D2E/DX2 analytically  !
 ! A81   A(5,23,47)            118.4521         calculate D2E/DX2 analytically  !
 ! A82   A(11,23,47)           115.4761         calculate D2E/DX2 analytically  !
 ! A83   A(4,24,25)            106.5338         calculate D2E/DX2 analytically  !
 ! A84   A(4,24,38)            109.5926         calculate D2E/DX2 analytically  !
 ! A85   A(4,24,48)            109.9047         calculate D2E/DX2 analytically  !
 ! A86   A(25,24,38)           111.5384         calculate D2E/DX2 analytically  !
 ! A87   A(25,24,48)           109.4705         calculate D2E/DX2 analytically  !
 ! A88   A(38,24,48)           109.7478         calculate D2E/DX2 analytically  !
 ! A89   A(5,25,24)            105.4195         calculate D2E/DX2 analytically  !
 ! A90   A(5,25,39)            116.6155         calculate D2E/DX2 analytically  !
 ! A91   A(5,25,49)            105.4384         calculate D2E/DX2 analytically  !
 ! A92   A(24,25,39)           111.6145         calculate D2E/DX2 analytically  !
 ! A93   A(24,25,49)           107.8995         calculate D2E/DX2 analytically  !
 ! A94   A(39,25,49)           109.3639         calculate D2E/DX2 analytically  !
 ! A95   A(14,26,50)           109.9291         calculate D2E/DX2 analytically  !
 ! A96   A(14,26,51)           111.5557         calculate D2E/DX2 analytically  !
 ! A97   A(14,26,52)           110.929          calculate D2E/DX2 analytically  !
 ! A98   A(50,26,51)           108.4512         calculate D2E/DX2 analytically  !
 ! A99   A(50,26,52)           107.4458         calculate D2E/DX2 analytically  !
 ! A100  A(51,26,52)           108.4034         calculate D2E/DX2 analytically  !
 ! A101  A(14,27,53)           110.7201         calculate D2E/DX2 analytically  !
 ! A102  A(14,27,54)           111.6072         calculate D2E/DX2 analytically  !
 ! A103  A(14,27,55)           110.3226         calculate D2E/DX2 analytically  !
 ! A104  A(53,27,54)           108.3357         calculate D2E/DX2 analytically  !
 ! A105  A(53,27,55)           107.5496         calculate D2E/DX2 analytically  !
 ! A106  A(54,27,55)           108.1722         calculate D2E/DX2 analytically  !
 ! A107  A(14,28,56)           109.2704         calculate D2E/DX2 analytically  !
 ! A108  A(14,28,57)           112.2371         calculate D2E/DX2 analytically  !
 ! A109  A(14,28,58)           112.4115         calculate D2E/DX2 analytically  !
 ! A110  A(56,28,57)           107.3818         calculate D2E/DX2 analytically  !
 ! A111  A(56,28,58)           107.3236         calculate D2E/DX2 analytically  !
 ! A112  A(57,28,58)           107.9789         calculate D2E/DX2 analytically  !
 ! A113  A(15,29,59)           109.9316         calculate D2E/DX2 analytically  !
 ! A114  A(15,29,60)           111.5063         calculate D2E/DX2 analytically  !
 ! A115  A(15,29,61)           110.9494         calculate D2E/DX2 analytically  !
 ! A116  A(59,29,60)           108.441          calculate D2E/DX2 analytically  !
 ! A117  A(59,29,61)           107.462          calculate D2E/DX2 analytically  !
 ! A118  A(60,29,61)           108.4259         calculate D2E/DX2 analytically  !
 ! A119  A(15,30,62)           109.2285         calculate D2E/DX2 analytically  !
 ! A120  A(15,30,63)           112.2689         calculate D2E/DX2 analytically  !
 ! A121  A(15,30,64)           112.4502         calculate D2E/DX2 analytically  !
 ! A122  A(62,30,63)           107.3814         calculate D2E/DX2 analytically  !
 ! A123  A(62,30,64)           107.2916         calculate D2E/DX2 analytically  !
 ! A124  A(63,30,64)           107.9785         calculate D2E/DX2 analytically  !
 ! A125  A(15,31,65)           110.8104         calculate D2E/DX2 analytically  !
 ! A126  A(15,31,66)           111.5922         calculate D2E/DX2 analytically  !
 ! A127  A(15,31,67)           110.2701         calculate D2E/DX2 analytically  !
 ! A128  A(65,31,66)           108.3408         calculate D2E/DX2 analytically  !
 ! A129  A(65,31,67)           107.5623         calculate D2E/DX2 analytically  !
 ! A130  A(66,31,67)           108.1305         calculate D2E/DX2 analytically  !
 ! A131  A(20,32,68)           109.8723         calculate D2E/DX2 analytically  !
 ! A132  A(20,32,69)           111.968          calculate D2E/DX2 analytically  !
 ! A133  A(20,32,70)           111.9627         calculate D2E/DX2 analytically  !
 ! A134  A(68,32,69)           107.4601         calculate D2E/DX2 analytically  !
 ! A135  A(68,32,70)           107.4713         calculate D2E/DX2 analytically  !
 ! A136  A(69,32,70)           107.8987         calculate D2E/DX2 analytically  !
 ! A137  A(20,33,71)           110.5282         calculate D2E/DX2 analytically  !
 ! A138  A(20,33,72)           111.2166         calculate D2E/DX2 analytically  !
 ! A139  A(20,33,73)           111.8669         calculate D2E/DX2 analytically  !
 ! A140  A(71,33,72)           107.7966         calculate D2E/DX2 analytically  !
 ! A141  A(71,33,73)           107.4799         calculate D2E/DX2 analytically  !
 ! A142  A(72,33,73)           107.7734         calculate D2E/DX2 analytically  !
 ! A143  A(20,34,74)           111.8175         calculate D2E/DX2 analytically  !
 ! A144  A(20,34,75)           111.2093         calculate D2E/DX2 analytically  !
 ! A145  A(20,34,76)           110.5675         calculate D2E/DX2 analytically  !
 ! A146  A(74,34,75)           107.7488         calculate D2E/DX2 analytically  !
 ! A147  A(74,34,76)           107.5143         calculate D2E/DX2 analytically  !
 ! A148  A(75,34,76)           107.8058         calculate D2E/DX2 analytically  !
 ! A149  A(21,35,77)           110.6105         calculate D2E/DX2 analytically  !
 ! A150  A(21,35,78)           111.7489         calculate D2E/DX2 analytically  !
 ! A151  A(21,35,79)           111.2264         calculate D2E/DX2 analytically  !
 ! A152  A(77,35,78)           107.5381         calculate D2E/DX2 analytically  !
 ! A153  A(77,35,79)           107.7805         calculate D2E/DX2 analytically  !
 ! A154  A(78,35,79)           107.7595         calculate D2E/DX2 analytically  !
 ! A155  A(21,36,80)           111.2262         calculate D2E/DX2 analytically  !
 ! A156  A(21,36,81)           111.6902         calculate D2E/DX2 analytically  !
 ! A157  A(21,36,82)           110.6247         calculate D2E/DX2 analytically  !
 ! A158  A(80,36,81)           107.762          calculate D2E/DX2 analytically  !
 ! A159  A(80,36,82)           107.7912         calculate D2E/DX2 analytically  !
 ! A160  A(81,36,82)           107.5726         calculate D2E/DX2 analytically  !
 ! A161  A(21,37,83)           109.7162         calculate D2E/DX2 analytically  !
 ! A162  A(21,37,84)           112.0818         calculate D2E/DX2 analytically  !
 ! A163  A(21,37,85)           112.0895         calculate D2E/DX2 analytically  !
 ! A164  A(83,37,84)           107.4029         calculate D2E/DX2 analytically  !
 ! A165  A(83,37,85)           107.4081         calculate D2E/DX2 analytically  !
 ! A166  A(84,37,85)           107.9229         calculate D2E/DX2 analytically  !
 ! A167  A(24,38,40)           111.7175         calculate D2E/DX2 analytically  !
 ! A168  A(24,38,86)           108.2117         calculate D2E/DX2 analytically  !
 ! A169  A(24,38,87)           108.8721         calculate D2E/DX2 analytically  !
 ! A170  A(40,38,86)           109.7499         calculate D2E/DX2 analytically  !
 ! A171  A(40,38,87)           111.4752         calculate D2E/DX2 analytically  !
 ! A172  A(86,38,87)           106.6329         calculate D2E/DX2 analytically  !
 ! A173  A(25,39,41)           112.9023         calculate D2E/DX2 analytically  !
 ! A174  A(25,39,88)           106.4306         calculate D2E/DX2 analytically  !
 ! A175  A(25,39,89)           110.6047         calculate D2E/DX2 analytically  !
 ! A176  A(41,39,88)           109.239          calculate D2E/DX2 analytically  !
 ! A177  A(41,39,89)           111.7307         calculate D2E/DX2 analytically  !
 ! A178  A(88,39,89)           105.517          calculate D2E/DX2 analytically  !
 ! A179  A(38,40,41)           110.8109         calculate D2E/DX2 analytically  !
 ! A180  A(38,40,90)           109.8368         calculate D2E/DX2 analytically  !
 ! A181  A(38,40,91)           109.5052         calculate D2E/DX2 analytically  !
 ! A182  A(41,40,90)           110.7265         calculate D2E/DX2 analytically  !
 ! A183  A(41,40,91)           109.3794         calculate D2E/DX2 analytically  !
 ! A184  A(90,40,91)           106.4801         calculate D2E/DX2 analytically  !
 ! A185  A(39,41,40)           110.5787         calculate D2E/DX2 analytically  !
 ! A186  A(39,41,92)           109.7182         calculate D2E/DX2 analytically  !
 ! A187  A(39,41,93)           110.0113         calculate D2E/DX2 analytically  !
 ! A188  A(40,41,92)           110.704          calculate D2E/DX2 analytically  !
 ! A189  A(40,41,93)           109.3821         calculate D2E/DX2 analytically  !
 ! A190  A(92,41,93)           106.3587         calculate D2E/DX2 analytically  !
 ! A191  L(2,1,5,3,-1)         180.3774         calculate D2E/DX2 analytically  !
 ! A192  L(3,1,4,2,-1)         179.3305         calculate D2E/DX2 analytically  !
 ! A193  L(2,1,5,3,-2)         180.8475         calculate D2E/DX2 analytically  !
 ! A194  L(3,1,4,2,-2)         169.5062         calculate D2E/DX2 analytically  !
 ! D1    D(3,1,2,8)           -176.6907         calculate D2E/DX2 analytically  !
 ! D2    D(4,1,2,8)             13.8031         calculate D2E/DX2 analytically  !
 ! D3    D(94,1,2,8)           -79.3521         calculate D2E/DX2 analytically  !
 ! D4    D(2,1,3,9)            179.6001         calculate D2E/DX2 analytically  !
 ! D5    D(5,1,3,9)             -1.2475         calculate D2E/DX2 analytically  !
 ! D6    D(94,1,3,9)            88.0222         calculate D2E/DX2 analytically  !
 ! D7    D(2,1,4,22)            -5.9922         calculate D2E/DX2 analytically  !
 ! D8    D(2,1,4,24)           168.2254         calculate D2E/DX2 analytically  !
 ! D9    D(5,1,4,22)           174.7716         calculate D2E/DX2 analytically  !
 ! D10   D(5,1,4,24)           -11.0107         calculate D2E/DX2 analytically  !
 ! D11   D(94,1,4,22)           86.2417         calculate D2E/DX2 analytically  !
 ! D12   D(94,1,4,24)          -99.5407         calculate D2E/DX2 analytically  !
 ! D13   D(3,1,5,23)             3.5406         calculate D2E/DX2 analytically  !
 ! D14   D(3,1,5,25)           174.8733         calculate D2E/DX2 analytically  !
 ! D15   D(4,1,5,23)           173.033          calculate D2E/DX2 analytically  !
 ! D16   D(4,1,5,25)           -15.6343         calculate D2E/DX2 analytically  !
 ! D17   D(94,1,5,23)          -93.8435         calculate D2E/DX2 analytically  !
 ! D18   D(94,1,5,25)           77.4892         calculate D2E/DX2 analytically  !
 ! D19   D(1,2,8,6)            167.3762         calculate D2E/DX2 analytically  !
 ! D20   D(1,2,8,10)           -13.6979         calculate D2E/DX2 analytically  !
 ! D21   D(1,3,9,7)            178.2805         calculate D2E/DX2 analytically  !
 ! D22   D(1,3,9,11)            -0.9012         calculate D2E/DX2 analytically  !
 ! D23   D(1,4,22,10)           -1.7799         calculate D2E/DX2 analytically  !
 ! D24   D(1,4,22,46)          178.1802         calculate D2E/DX2 analytically  !
 ! D25   D(24,4,22,10)        -175.6098         calculate D2E/DX2 analytically  !
 ! D26   D(24,4,22,46)           4.3504         calculate D2E/DX2 analytically  !
 ! D27   D(1,4,24,25)           33.6275         calculate D2E/DX2 analytically  !
 ! D28   D(1,4,24,38)          -87.1801         calculate D2E/DX2 analytically  !
 ! D29   D(1,4,24,48)          152.1352         calculate D2E/DX2 analytically  !
 ! D30   D(22,4,24,25)        -151.7128         calculate D2E/DX2 analytically  !
 ! D31   D(22,4,24,38)          87.4796         calculate D2E/DX2 analytically  !
 ! D32   D(22,4,24,48)         -33.2051         calculate D2E/DX2 analytically  !
 ! D33   D(1,5,23,11)           -3.8808         calculate D2E/DX2 analytically  !
 ! D34   D(1,5,23,47)          176.2805         calculate D2E/DX2 analytically  !
 ! D35   D(25,5,23,11)        -174.3925         calculate D2E/DX2 analytically  !
 ! D36   D(25,5,23,47)           5.7689         calculate D2E/DX2 analytically  !
 ! D37   D(1,5,25,24)           36.769          calculate D2E/DX2 analytically  !
 ! D38   D(1,5,25,39)          161.214          calculate D2E/DX2 analytically  !
 ! D39   D(1,5,25,49)          -77.2431         calculate D2E/DX2 analytically  !
 ! D40   D(23,5,25,24)        -151.4947         calculate D2E/DX2 analytically  !
 ! D41   D(23,5,25,39)         -27.0497         calculate D2E/DX2 analytically  !
 ! D42   D(23,5,25,49)          94.4932         calculate D2E/DX2 analytically  !
 ! D43   D(14,6,8,2)            -5.5015         calculate D2E/DX2 analytically  !
 ! D44   D(14,6,8,10)          175.5165         calculate D2E/DX2 analytically  !
 ! D45   D(16,6,8,2)           176.4689         calculate D2E/DX2 analytically  !
 ! D46   D(16,6,8,10)           -2.5131         calculate D2E/DX2 analytically  !
 ! D47   D(8,6,14,26)           59.7169         calculate D2E/DX2 analytically  !
 ! D48   D(8,6,14,27)          -61.325          calculate D2E/DX2 analytically  !
 ! D49   D(8,6,14,28)          179.7884         calculate D2E/DX2 analytically  !
 ! D50   D(16,6,14,26)        -122.3212         calculate D2E/DX2 analytically  !
 ! D51   D(16,6,14,27)         116.6369         calculate D2E/DX2 analytically  !
 ! D52   D(16,6,14,28)          -2.2497         calculate D2E/DX2 analytically  !
 ! D53   D(8,6,16,12)            0.8207         calculate D2E/DX2 analytically  !
 ! D54   D(8,6,16,42)         -179.6576         calculate D2E/DX2 analytically  !
 ! D55   D(14,6,16,12)        -177.1811         calculate D2E/DX2 analytically  !
 ! D56   D(14,6,16,42)           2.3406         calculate D2E/DX2 analytically  !
 ! D57   D(15,7,9,3)            -2.3772         calculate D2E/DX2 analytically  !
 ! D58   D(15,7,9,11)          176.8446         calculate D2E/DX2 analytically  !
 ! D59   D(17,7,9,3)           178.9314         calculate D2E/DX2 analytically  !
 ! D60   D(17,7,9,11)           -1.8467         calculate D2E/DX2 analytically  !
 ! D61   D(9,7,15,29)           58.9651         calculate D2E/DX2 analytically  !
 ! D62   D(9,7,15,30)          178.9036         calculate D2E/DX2 analytically  !
 ! D63   D(9,7,15,31)          -62.0082         calculate D2E/DX2 analytically  !
 ! D64   D(17,7,15,29)        -122.3818         calculate D2E/DX2 analytically  !
 ! D65   D(17,7,15,30)          -2.4433         calculate D2E/DX2 analytically  !
 ! D66   D(17,7,15,31)         116.6448         calculate D2E/DX2 analytically  !
 ! D67   D(9,7,17,13)            0.5117         calculate D2E/DX2 analytically  !
 ! D68   D(9,7,17,43)         -179.5608         calculate D2E/DX2 analytically  !
 ! D69   D(15,7,17,13)        -178.1669         calculate D2E/DX2 analytically  !
 ! D70   D(15,7,17,43)           1.7607         calculate D2E/DX2 analytically  !
 ! D71   D(2,8,10,18)         -176.307          calculate D2E/DX2 analytically  !
 ! D72   D(2,8,10,22)            2.3823         calculate D2E/DX2 analytically  !
 ! D73   D(6,8,10,18)            2.634          calculate D2E/DX2 analytically  !
 ! D74   D(6,8,10,22)         -178.6767         calculate D2E/DX2 analytically  !
 ! D75   D(3,9,11,19)         -178.8568         calculate D2E/DX2 analytically  !
 ! D76   D(3,9,11,23)            1.597          calculate D2E/DX2 analytically  !
 ! D77   D(7,9,11,19)            1.9487         calculate D2E/DX2 analytically  !
 ! D78   D(7,9,11,23)         -177.5975         calculate D2E/DX2 analytically  !
 ! D79   D(8,10,18,12)          -0.9751         calculate D2E/DX2 analytically  !
 ! D80   D(8,10,18,44)         179.033          calculate D2E/DX2 analytically  !
 ! D81   D(22,10,18,12)       -179.7211         calculate D2E/DX2 analytically  !
 ! D82   D(22,10,18,44)          0.2869         calculate D2E/DX2 analytically  !
 ! D83   D(8,10,22,4)            5.6903         calculate D2E/DX2 analytically  !
 ! D84   D(8,10,22,46)        -174.2702         calculate D2E/DX2 analytically  !
 ! D85   D(18,10,22,4)        -175.5783         calculate D2E/DX2 analytically  !
 ! D86   D(18,10,22,46)          4.4612         calculate D2E/DX2 analytically  !
 ! D87   D(9,11,19,13)          -0.6631         calculate D2E/DX2 analytically  !
 ! D88   D(9,11,19,45)         179.4408         calculate D2E/DX2 analytically  !
 ! D89   D(23,11,19,13)        178.9075         calculate D2E/DX2 analytically  !
 ! D90   D(23,11,19,45)         -0.9885         calculate D2E/DX2 analytically  !
 ! D91   D(9,11,23,5)            0.9321         calculate D2E/DX2 analytically  !
 ! D92   D(9,11,23,47)        -179.2251         calculate D2E/DX2 analytically  !
 ! D93   D(19,11,23,5)        -178.6293         calculate D2E/DX2 analytically  !
 ! D94   D(19,11,23,47)          1.2135         calculate D2E/DX2 analytically  !
 ! D95   D(18,12,16,6)           0.8661         calculate D2E/DX2 analytically  !
 ! D96   D(18,12,16,42)       -178.6595         calculate D2E/DX2 analytically  !
 ! D97   D(20,12,16,6)        -179.509          calculate D2E/DX2 analytically  !
 ! D98   D(20,12,16,42)          0.9654         calculate D2E/DX2 analytically  !
 ! D99   D(16,12,18,10)         -0.7832         calculate D2E/DX2 analytically  !
 ! D100  D(16,12,18,44)        179.2085         calculate D2E/DX2 analytically  !
 ! D101  D(20,12,18,10)        179.6098         calculate D2E/DX2 analytically  !
 ! D102  D(20,12,18,44)         -0.3985         calculate D2E/DX2 analytically  !
 ! D103  D(16,12,20,32)       -179.3318         calculate D2E/DX2 analytically  !
 ! D104  D(16,12,20,33)        -58.9809         calculate D2E/DX2 analytically  !
 ! D105  D(16,12,20,34)         60.4057         calculate D2E/DX2 analytically  !
 ! D106  D(18,12,20,32)          0.2652         calculate D2E/DX2 analytically  !
 ! D107  D(18,12,20,33)        120.6161         calculate D2E/DX2 analytically  !
 ! D108  D(18,12,20,34)       -119.9973         calculate D2E/DX2 analytically  !
 ! D109  D(19,13,17,7)           0.7895         calculate D2E/DX2 analytically  !
 ! D110  D(19,13,17,43)       -179.138          calculate D2E/DX2 analytically  !
 ! D111  D(21,13,17,7)        -179.4774         calculate D2E/DX2 analytically  !
 ! D112  D(21,13,17,43)          0.5951         calculate D2E/DX2 analytically  !
 ! D113  D(17,13,19,11)         -0.7054         calculate D2E/DX2 analytically  !
 ! D114  D(17,13,19,45)        179.1875         calculate D2E/DX2 analytically  !
 ! D115  D(21,13,19,11)        179.5543         calculate D2E/DX2 analytically  !
 ! D116  D(21,13,19,45)         -0.5527         calculate D2E/DX2 analytically  !
 ! D117  D(17,13,21,35)       -120.8676         calculate D2E/DX2 analytically  !
 ! D118  D(17,13,21,36)        119.8493         calculate D2E/DX2 analytically  !
 ! D119  D(17,13,21,37)         -0.4694         calculate D2E/DX2 analytically  !
 ! D120  D(19,13,21,35)         58.8555         calculate D2E/DX2 analytically  !
 ! D121  D(19,13,21,36)        -60.4276         calculate D2E/DX2 analytically  !
 ! D122  D(19,13,21,37)        179.2537         calculate D2E/DX2 analytically  !
 ! D123  D(6,14,26,50)         177.4967         calculate D2E/DX2 analytically  !
 ! D124  D(6,14,26,51)         -62.1586         calculate D2E/DX2 analytically  !
 ! D125  D(6,14,26,52)          58.8056         calculate D2E/DX2 analytically  !
 ! D126  D(27,14,26,50)        -61.8267         calculate D2E/DX2 analytically  !
 ! D127  D(27,14,26,51)         58.518          calculate D2E/DX2 analytically  !
 ! D128  D(27,14,26,52)        179.4822         calculate D2E/DX2 analytically  !
 ! D129  D(28,14,26,50)         54.7154         calculate D2E/DX2 analytically  !
 ! D130  D(28,14,26,51)        175.0601         calculate D2E/DX2 analytically  !
 ! D131  D(28,14,26,52)        -63.9758         calculate D2E/DX2 analytically  !
 ! D132  D(6,14,27,53)         -62.1217         calculate D2E/DX2 analytically  !
 ! D133  D(6,14,27,54)          58.6476         calculate D2E/DX2 analytically  !
 ! D134  D(6,14,27,55)         178.9393         calculate D2E/DX2 analytically  !
 ! D135  D(26,14,27,53)        175.9945         calculate D2E/DX2 analytically  !
 ! D136  D(26,14,27,54)        -63.2362         calculate D2E/DX2 analytically  !
 ! D137  D(26,14,27,55)         57.0555         calculate D2E/DX2 analytically  !
 ! D138  D(28,14,27,53)         59.5331         calculate D2E/DX2 analytically  !
 ! D139  D(28,14,27,54)       -179.6977         calculate D2E/DX2 analytically  !
 ! D140  D(28,14,27,55)        -59.4059         calculate D2E/DX2 analytically  !
 ! D141  D(6,14,28,56)         179.6001         calculate D2E/DX2 analytically  !
 ! D142  D(6,14,28,57)         -61.3982         calculate D2E/DX2 analytically  !
 ! D143  D(6,14,28,58)          60.5616         calculate D2E/DX2 analytically  !
 ! D144  D(26,14,28,56)        -58.1873         calculate D2E/DX2 analytically  !
 ! D145  D(26,14,28,57)         60.8144         calculate D2E/DX2 analytically  !
 ! D146  D(26,14,28,58)       -177.2258         calculate D2E/DX2 analytically  !
 ! D147  D(27,14,28,56)         59.7882         calculate D2E/DX2 analytically  !
 ! D148  D(27,14,28,57)        178.79           calculate D2E/DX2 analytically  !
 ! D149  D(27,14,28,58)        -59.2503         calculate D2E/DX2 analytically  !
 ! D150  D(7,15,29,59)         178.3014         calculate D2E/DX2 analytically  !
 ! D151  D(7,15,29,60)         -61.3972         calculate D2E/DX2 analytically  !
 ! D152  D(7,15,29,61)          59.5759         calculate D2E/DX2 analytically  !
 ! D153  D(30,15,29,59)         55.5641         calculate D2E/DX2 analytically  !
 ! D154  D(30,15,29,60)        175.8655         calculate D2E/DX2 analytically  !
 ! D155  D(30,15,29,61)        -63.1614         calculate D2E/DX2 analytically  !
 ! D156  D(31,15,29,59)        -60.7743         calculate D2E/DX2 analytically  !
 ! D157  D(31,15,29,60)         59.5271         calculate D2E/DX2 analytically  !
 ! D158  D(31,15,29,61)       -179.4998         calculate D2E/DX2 analytically  !
 ! D159  D(7,15,30,62)        -179.9476         calculate D2E/DX2 analytically  !
 ! D160  D(7,15,30,63)         -60.9541         calculate D2E/DX2 analytically  !
 ! D161  D(7,15,30,64)          61.0575         calculate D2E/DX2 analytically  !
 ! D162  D(29,15,30,62)        -57.9993         calculate D2E/DX2 analytically  !
 ! D163  D(29,15,30,63)         60.9942         calculate D2E/DX2 analytically  !
 ! D164  D(29,15,30,64)       -176.9943         calculate D2E/DX2 analytically  !
 ! D165  D(31,15,30,62)         59.7515         calculate D2E/DX2 analytically  !
 ! D166  D(31,15,30,63)        178.745          calculate D2E/DX2 analytically  !
 ! D167  D(31,15,30,64)        -59.2434         calculate D2E/DX2 analytically  !
 ! D168  D(7,15,31,65)         -61.7509         calculate D2E/DX2 analytically  !
 ! D169  D(7,15,31,66)          59.0767         calculate D2E/DX2 analytically  !
 ! D170  D(7,15,31,67)         179.2706         calculate D2E/DX2 analytically  !
 ! D171  D(29,15,31,65)        176.5075         calculate D2E/DX2 analytically  !
 ! D172  D(29,15,31,66)        -62.6649         calculate D2E/DX2 analytically  !
 ! D173  D(29,15,31,67)         57.529          calculate D2E/DX2 analytically  !
 ! D174  D(30,15,31,65)         60.2011         calculate D2E/DX2 analytically  !
 ! D175  D(30,15,31,66)       -178.9712         calculate D2E/DX2 analytically  !
 ! D176  D(30,15,31,67)        -58.7773         calculate D2E/DX2 analytically  !
 ! D177  D(12,20,32,68)       -179.962          calculate D2E/DX2 analytically  !
 ! D178  D(12,20,32,69)        -60.6334         calculate D2E/DX2 analytically  !
 ! D179  D(12,20,32,70)         60.6988         calculate D2E/DX2 analytically  !
 ! D180  D(33,20,32,68)         59.001          calculate D2E/DX2 analytically  !
 ! D181  D(33,20,32,69)        178.3296         calculate D2E/DX2 analytically  !
 ! D182  D(33,20,32,70)        -60.3383         calculate D2E/DX2 analytically  !
 ! D183  D(34,20,32,68)        -59.1209         calculate D2E/DX2 analytically  !
 ! D184  D(34,20,32,69)         60.2077         calculate D2E/DX2 analytically  !
 ! D185  D(34,20,32,70)       -178.4602         calculate D2E/DX2 analytically  !
 ! D186  D(12,20,33,71)        179.566          calculate D2E/DX2 analytically  !
 ! D187  D(12,20,33,72)        -60.7343         calculate D2E/DX2 analytically  !
 ! D188  D(12,20,33,73)         59.8384         calculate D2E/DX2 analytically  !
 ! D189  D(32,20,33,71)        -57.9785         calculate D2E/DX2 analytically  !
 ! D190  D(32,20,33,72)         61.7212         calculate D2E/DX2 analytically  !
 ! D191  D(32,20,33,73)       -177.7061         calculate D2E/DX2 analytically  !
 ! D192  D(34,20,33,71)         59.851          calculate D2E/DX2 analytically  !
 ! D193  D(34,20,33,72)        179.5506         calculate D2E/DX2 analytically  !
 ! D194  D(34,20,33,73)        -59.8766         calculate D2E/DX2 analytically  !
 ! D195  D(12,20,34,74)        -59.5807         calculate D2E/DX2 analytically  !
 ! D196  D(12,20,34,75)         60.9216         calculate D2E/DX2 analytically  !
 ! D197  D(12,20,34,76)       -179.3459         calculate D2E/DX2 analytically  !
 ! D198  D(32,20,34,74)        178.0553         calculate D2E/DX2 analytically  !
 ! D199  D(32,20,34,75)        -61.4424         calculate D2E/DX2 analytically  !
 ! D200  D(32,20,34,76)         58.2901         calculate D2E/DX2 analytically  !
 ! D201  D(33,20,34,74)         60.238          calculate D2E/DX2 analytically  !
 ! D202  D(33,20,34,75)       -179.2597         calculate D2E/DX2 analytically  !
 ! D203  D(33,20,34,76)        -59.5272         calculate D2E/DX2 analytically  !
 ! D204  D(13,21,35,77)       -179.5195         calculate D2E/DX2 analytically  !
 ! D205  D(13,21,35,78)        -59.7406         calculate D2E/DX2 analytically  !
 ! D206  D(13,21,35,79)         60.7401         calculate D2E/DX2 analytically  !
 ! D207  D(36,21,35,77)        -59.893          calculate D2E/DX2 analytically  !
 ! D208  D(36,21,35,78)         59.8858         calculate D2E/DX2 analytically  !
 ! D209  D(36,21,35,79)       -179.6335         calculate D2E/DX2 analytically  !
 ! D210  D(37,21,35,77)         57.6889         calculate D2E/DX2 analytically  !
 ! D211  D(37,21,35,78)        177.4677         calculate D2E/DX2 analytically  !
 ! D212  D(37,21,35,79)        -62.0516         calculate D2E/DX2 analytically  !
 ! D213  D(13,21,36,80)        -60.6068         calculate D2E/DX2 analytically  !
 ! D214  D(13,21,36,81)         59.8368         calculate D2E/DX2 analytically  !
 ! D215  D(13,21,36,82)        179.6301         calculate D2E/DX2 analytically  !
 ! D216  D(35,21,36,80)        179.7004         calculate D2E/DX2 analytically  !
 ! D217  D(35,21,36,81)        -59.856          calculate D2E/DX2 analytically  !
 ! D218  D(35,21,36,82)         59.9372         calculate D2E/DX2 analytically  !
 ! D219  D(37,21,36,80)         62.1152         calculate D2E/DX2 analytically  !
 ! D220  D(37,21,36,81)       -177.4412         calculate D2E/DX2 analytically  !
 ! D221  D(37,21,36,82)        -57.648          calculate D2E/DX2 analytically  !
 ! D222  D(13,21,37,83)       -179.9848         calculate D2E/DX2 analytically  !
 ! D223  D(13,21,37,84)        -60.7591         calculate D2E/DX2 analytically  !
 ! D224  D(13,21,37,85)         60.778          calculate D2E/DX2 analytically  !
 ! D225  D(35,21,37,83)        -58.8851         calculate D2E/DX2 analytically  !
 ! D226  D(35,21,37,84)         60.3407         calculate D2E/DX2 analytically  !
 ! D227  D(35,21,37,85)       -178.1223         calculate D2E/DX2 analytically  !
 ! D228  D(36,21,37,83)         59.0528         calculate D2E/DX2 analytically  !
 ! D229  D(36,21,37,84)        178.2785         calculate D2E/DX2 analytically  !
 ! D230  D(36,21,37,85)        -60.1844         calculate D2E/DX2 analytically  !
 ! D231  D(4,24,25,5)          -43.8382         calculate D2E/DX2 analytically  !
 ! D232  D(4,24,25,39)        -171.3671         calculate D2E/DX2 analytically  !
 ! D233  D(4,24,25,49)          68.4503         calculate D2E/DX2 analytically  !
 ! D234  D(38,24,25,5)          75.714          calculate D2E/DX2 analytically  !
 ! D235  D(38,24,25,39)        -51.8149         calculate D2E/DX2 analytically  !
 ! D236  D(38,24,25,49)       -171.9975         calculate D2E/DX2 analytically  !
 ! D237  D(48,24,25,5)        -162.6302         calculate D2E/DX2 analytically  !
 ! D238  D(48,24,25,39)         69.8409         calculate D2E/DX2 analytically  !
 ! D239  D(48,24,25,49)        -50.3417         calculate D2E/DX2 analytically  !
 ! D240  D(4,24,38,40)         172.2144         calculate D2E/DX2 analytically  !
 ! D241  D(4,24,38,86)          51.2865         calculate D2E/DX2 analytically  !
 ! D242  D(4,24,38,87)         -64.2394         calculate D2E/DX2 analytically  !
 ! D243  D(25,24,38,40)         54.4893         calculate D2E/DX2 analytically  !
 ! D244  D(25,24,38,86)        -66.4386         calculate D2E/DX2 analytically  !
 ! D245  D(25,24,38,87)        178.0355         calculate D2E/DX2 analytically  !
 ! D246  D(48,24,38,40)        -67.0058         calculate D2E/DX2 analytically  !
 ! D247  D(48,24,38,86)        172.0663         calculate D2E/DX2 analytically  !
 ! D248  D(48,24,38,87)         56.5404         calculate D2E/DX2 analytically  !
 ! D249  D(5,25,39,41)         -68.5233         calculate D2E/DX2 analytically  !
 ! D250  D(5,25,39,88)         171.6407         calculate D2E/DX2 analytically  !
 ! D251  D(5,25,39,89)          57.5082         calculate D2E/DX2 analytically  !
 ! D252  D(24,25,39,41)         52.7043         calculate D2E/DX2 analytically  !
 ! D253  D(24,25,39,88)        -67.1317         calculate D2E/DX2 analytically  !
 ! D254  D(24,25,39,89)        178.7359         calculate D2E/DX2 analytically  !
 ! D255  D(49,25,39,41)        172.0231         calculate D2E/DX2 analytically  !
 ! D256  D(49,25,39,88)         52.1871         calculate D2E/DX2 analytically  !
 ! D257  D(49,25,39,89)        -61.9454         calculate D2E/DX2 analytically  !
 ! D258  D(24,38,40,41)        -56.8662         calculate D2E/DX2 analytically  !
 ! D259  D(24,38,40,90)       -179.523          calculate D2E/DX2 analytically  !
 ! D260  D(24,38,40,91)         63.8794         calculate D2E/DX2 analytically  !
 ! D261  D(86,38,40,41)         63.1626         calculate D2E/DX2 analytically  !
 ! D262  D(86,38,40,90)        -59.4941         calculate D2E/DX2 analytically  !
 ! D263  D(86,38,40,91)       -176.0917         calculate D2E/DX2 analytically  !
 ! D264  D(87,38,40,41)       -178.9285         calculate D2E/DX2 analytically  !
 ! D265  D(87,38,40,90)         58.4147         calculate D2E/DX2 analytically  !
 ! D266  D(87,38,40,91)        -58.1829         calculate D2E/DX2 analytically  !
 ! D267  D(25,39,41,40)        -54.8923         calculate D2E/DX2 analytically  !
 ! D268  D(25,39,41,92)       -177.2855         calculate D2E/DX2 analytically  !
 ! D269  D(25,39,41,93)         66.0383         calculate D2E/DX2 analytically  !
 ! D270  D(88,39,41,40)         63.3149         calculate D2E/DX2 analytically  !
 ! D271  D(88,39,41,92)        -59.0783         calculate D2E/DX2 analytically  !
 ! D272  D(88,39,41,93)       -175.7545         calculate D2E/DX2 analytically  !
 ! D273  D(89,39,41,40)        179.6824         calculate D2E/DX2 analytically  !
 ! D274  D(89,39,41,92)         57.2892         calculate D2E/DX2 analytically  !
 ! D275  D(89,39,41,93)        -59.387          calculate D2E/DX2 analytically  !
 ! D276  D(38,40,41,39)         56.3705         calculate D2E/DX2 analytically  !
 ! D277  D(38,40,41,92)        178.1852         calculate D2E/DX2 analytically  !
 ! D278  D(38,40,41,93)        -64.9333         calculate D2E/DX2 analytically  !
 ! D279  D(90,40,41,39)        178.5091         calculate D2E/DX2 analytically  !
 ! D280  D(90,40,41,92)        -59.6762         calculate D2E/DX2 analytically  !
 ! D281  D(90,40,41,93)         57.2054         calculate D2E/DX2 analytically  !
 ! D282  D(91,40,41,39)        -64.4497         calculate D2E/DX2 analytically  !
 ! D283  D(91,40,41,92)         57.3651         calculate D2E/DX2 analytically  !
 ! D284  D(91,40,41,93)        174.2466         calculate D2E/DX2 analytically  !
 --------------------------------------------------------------------------------
 Trust Radius=3.00D-01 FncErr=5.00D-06 GrdErr=5.00D-06 EigMax=2.50D+02 EigMin=1.00D-04
 Number of steps in this run=    564 maximum allowed number of steps=    564.
 GradGradGradGradGradGradGradGradGradGradGradGradGradGradGradGradGradGrad

 Symmetry turned off by external request.
 Stoichiometry    C36H53CoN2O2
 Framework group  C1[X(C36H53CoN2O2)]
 Deg. of freedom   276
 Full point group                 C1      NOp   1
                          Input orientation:                          
 ---------------------------------------------------------------------
 Center     Atomic      Atomic             Coordinates (Angstroms)
 Number     Number       Type             X           Y           Z
 ---------------------------------------------------------------------
      1         27           0        0.062238    0.345114   -1.517712
      2          8           0        1.255495   -1.119925   -1.696027
      3          8           0       -1.285155   -0.951792   -1.228254
      4          7           0        1.325343    1.583549   -2.136537
      5          7           0       -1.117159    1.805494   -1.370103
      6          6           0        3.306847   -2.290132   -1.715691
      7          6           0       -3.413334   -1.898711   -0.836412
      8          6           0        2.541154   -1.083954   -1.876138
      9          6           0       -2.550210   -0.764928   -0.991184
     10          6           0        3.242026    0.104974   -2.252546
     11          6           0       -3.135175    0.538055   -0.892328
     12          6           0        5.364997   -1.085761   -2.394579
     13          6           0       -5.343028   -0.398701   -0.431614
     14          6           0        2.631680   -3.571437   -1.214748
     15          6           0       -2.862307   -3.319860   -1.002926
     16          6           0        4.664003   -2.244032   -1.985164
     17          6           0       -4.756746   -1.673614   -0.561316
     18          6           0        4.631529    0.073702   -2.511631
     19          6           0       -4.507676    0.686664   -0.609996
     20          6           0        6.864648   -1.173828   -2.671150
     21          6           0       -6.826596   -0.192211   -0.116210
     22          6           0        2.573312    1.355364   -2.408613
     23          6           0       -2.377909    1.737103   -1.080054
     24          6           0        0.734321    2.894142   -2.433363
     25          6           0       -0.395613    3.100426   -1.424420
     26          6           0        1.497935   -4.003583   -2.157215
     27          6           0        2.068638   -3.324898    0.194269
     28          6           0        3.616147   -4.738299   -1.119201
     29          6           0       -1.728779   -3.587233   -0.001201
     30          6           0       -3.936351   -4.384575   -0.771619
     31          6           0       -2.336359   -3.501029   -2.435609
     32          6           0        7.448494    0.175365   -3.084666
     33          6           0        7.594179   -1.651742   -1.408387
     34          6           0        7.117385   -2.179727   -3.802373
     35          6           0       -7.482790    0.617244   -1.242435
     36          6           0       -6.965370    0.585088    1.199509
     37          6           0       -7.578626   -1.514683    0.025781
     38          6           0        0.212656    2.907803   -3.871373
     39          6           0       -1.227492    4.331392   -1.757846
     40          6           0       -0.578205    4.172884   -4.171513
     41          6           0       -1.735585    4.332334   -3.193964
     42          1           0        5.239393   -3.156852   -1.868967
     43          1           0       -5.397276   -2.537999   -0.439356
     44          1           0        5.102438    1.006555   -2.808805
     45          1           0       -4.897376    1.700501   -0.537031
     46          1           0        3.170225    2.189243   -2.791799
     47          1           0       -2.936783    2.668511   -0.965474
     48          1           0        1.487784    3.681525   -2.304777
     49          1           0        0.056801    3.224746   -0.431897
     50          1           0        1.058348   -4.943947   -1.806109
     51          1           0        0.710581   -3.252325   -2.207002
     52          1           0        1.876071   -4.176083   -3.171029
     53          1           0        2.873916   -3.084585    0.896817
     54          1           0        1.350041   -2.503724    0.201838
     55          1           0        1.564019   -4.223996    0.565113
     56          1           0        3.090651   -5.624977   -0.751756
     57          1           0        4.050346   -4.994721   -2.091039
     58          1           0        4.437732   -4.535347   -0.425061
     59          1           0       -1.366706   -4.615527   -0.112498
     60          1           0       -0.890881   -2.908214   -0.155603
     61          1           0       -2.081875   -3.472766    1.029649
     62          1           0       -3.493734   -5.376987   -0.900774
     63          1           0       -4.352433   -4.341198    0.240061
     64          1           0       -4.765337   -4.303176   -1.481628
     65          1           0       -3.143635   -3.375616   -3.165294
     66          1           0       -1.549044   -2.782828   -2.667978
     67          1           0       -1.927232   -4.509315   -2.565168
     68          1           0        8.521243    0.073892   -3.274713
     69          1           0        6.987392    0.557572   -4.000781
     70          1           0        7.323221    0.932215   -2.303953
     71          1           0        8.671101   -1.727670   -1.592548
     72          1           0        7.445164   -0.955065   -0.577119
     73          1           0        7.245857   -2.637049   -1.084864
     74          1           0        6.749555   -3.178288   -3.548269
     75          1           0        6.622926   -1.867438   -4.727885
     76          1           0        8.189661   -2.265943   -4.008157
     77          1           0       -8.544518    0.782772   -1.030138
     78          1           0       -7.013854    1.598205   -1.362840
     79          1           0       -7.411268    0.093007   -2.200915
     80          1           0       -6.513083    0.037761    2.032828
     81          1           0       -6.482786    1.565221    1.142901
     82          1           0       -8.021058    0.749698    1.440900
     83          1           0       -8.631494   -1.318399    0.249964
     84          1           0       -7.544728   -2.108056   -0.893358
     85          1           0       -7.179902   -2.129686    0.838612
     86          1           0       -0.428781    2.026585   -4.012450
     87          1           0        1.059058    2.792235   -4.556277
     88          1           0       -0.573328    5.198563   -1.605327
     89          1           0       -2.043582    4.450567   -1.039495
     90          1           0       -0.943165    4.146768   -5.202893
     91          1           0        0.084383    5.045882   -4.097435
     92          1           0       -2.283635    5.258714   -3.391080
     93          1           0       -2.451342    3.512555   -3.339837
     94          1           0        0.429047    0.543341   -0.141837
 ---------------------------------------------------------------------
 Rotational constants (GHZ):           0.1308491           0.0482879           0.0371973
 General basis read from cards:  (5D, 7F)
 ======================================================================================================
                                       Pseudopotential Parameters
 ======================================================================================================
  Center     Atomic      Valence      Angular      Power
  Number     Number     Electrons     Momentum     of R      Exponent        Coefficient   SO-Coeffient
 ======================================================================================================
    1         27           17
                                      F and up 
                                                     2        1.0000000        0.00000000    0.00000000
                                      S - F
                                                     2       23.6600000      283.96056600    0.00000000
                                                     2       10.6100000       47.15684600    0.00000000
                                      P - F
                                                     2       25.0400000      182.21223600    0.00000000
                                                     2       10.4400000       35.23335200    0.00000000
                                      D - F
                                                     2       29.5400000      -26.47533300    0.00000000
                                                     2       10.1800000       -1.82578700    0.00000000
    2          8
                                   No pseudopotential on this center.
    3          8
                                   No pseudopotential on this center.
    4          7
                                   No pseudopotential on this center.
    5          7
                                   No pseudopotential on this center.
    6          6
                                   No pseudopotential on this center.
    7          6
                                   No pseudopotential on this center.
    8          6
                                   No pseudopotential on this center.
    9          6
                                   No pseudopotential on this center.
   10          6
                                   No pseudopotential on this center.
   11          6
                                   No pseudopotential on this center.
   12          6
                                   No pseudopotential on this center.
   13          6
                                   No pseudopotential on this center.
   14          6
                                   No pseudopotential on this center.
   15          6
                                   No pseudopotential on this center.
   16          6
                                   No pseudopotential on this center.
   17          6
                                   No pseudopotential on this center.
   18          6
                                   No pseudopotential on this center.
   19          6
                                   No pseudopotential on this center.
   20          6
                                   No pseudopotential on this center.
   21          6
                                   No pseudopotential on this center.
   22          6
                                   No pseudopotential on this center.
   23          6
                                   No pseudopotential on this center.
   24          6
                                   No pseudopotential on this center.
   25          6
                                   No pseudopotential on this center.
   26          6
                                   No pseudopotential on this center.
   27          6
                                   No pseudopotential on this center.
   28          6
                                   No pseudopotential on this center.
   29          6
                                   No pseudopotential on this center.
   30          6
                                   No pseudopotential on this center.
   31          6
                                   No pseudopotential on this center.
   32          6
                                   No pseudopotential on this center.
   33          6
                                   No pseudopotential on this center.
   34          6
                                   No pseudopotential on this center.
   35          6
                                   No pseudopotential on this center.
   36          6
                                   No pseudopotential on this center.
   37          6
                                   No pseudopotential on this center.
   38          6
                                   No pseudopotential on this center.
   39          6
                                   No pseudopotential on this center.
   40          6
                                   No pseudopotential on this center.
   41          6
                                   No pseudopotential on this center.
   42          1
                                   No pseudopotential on this center.
   43          1
                                   No pseudopotential on this center.
   44          1
                                   No pseudopotential on this center.
   45          1
                                   No pseudopotential on this center.
   46          1
                                   No pseudopotential on this center.
   47          1
                                   No pseudopotential on this center.
   48          1
                                   No pseudopotential on this center.
   49          1
                                   No pseudopotential on this center.
   50          1
                                   No pseudopotential on this center.
   51          1
                                   No pseudopotential on this center.
   52          1
                                   No pseudopotential on this center.
   53          1
                                   No pseudopotential on this center.
   54          1
                                   No pseudopotential on this center.
   55          1
                                   No pseudopotential on this center.
   56          1
                                   No pseudopotential on this center.
   57          1
                                   No pseudopotential on this center.
   58          1
                                   No pseudopotential on this center.
   59          1
                                   No pseudopotential on this center.
   60          1
                                   No pseudopotential on this center.
   61          1
                                   No pseudopotential on this center.
   62          1
                                   No pseudopotential on this center.
   63          1
                                   No pseudopotential on this center.
   64          1
                                   No pseudopotential on this center.
   65          1
                                   No pseudopotential on this center.
   66          1
                                   No pseudopotential on this center.
   67          1
                                   No pseudopotential on this center.
   68          1
                                   No pseudopotential on this center.
   69          1
                                   No pseudopotential on this center.
   70          1
                                   No pseudopotential on this center.
   71          1
                                   No pseudopotential on this center.
   72          1
                                   No pseudopotential on this center.
   73          1
                                   No pseudopotential on this center.
   74          1
                                   No pseudopotential on this center.
   75          1
                                   No pseudopotential on this center.
   76          1
                                   No pseudopotential on this center.
   77          1
                                   No pseudopotential on this center.
   78          1
                                   No pseudopotential on this center.
   79          1
                                   No pseudopotential on this center.
   80          1
                                   No pseudopotential on this center.
   81          1
                                   No pseudopotential on this center.
   82          1
                                   No pseudopotential on this center.
   83          1
                                   No pseudopotential on this center.
   84          1
                                   No pseudopotential on this center.
   85          1
                                   No pseudopotential on this center.
   86          1
                                   No pseudopotential on this center.
   87          1
                                   No pseudopotential on this center.
   88          1
                                   No pseudopotential on this center.
   89          1
                                   No pseudopotential on this center.
   90          1
                                   No pseudopotential on this center.
   91          1
                                   No pseudopotential on this center.
   92          1
                                   No pseudopotential on this center.
   93          1
                                   No pseudopotential on this center.
   94          1
                                   No pseudopotential on this center.
 ======================================================================================================
  1294 basis functions,  1992 primitive gaussians,  1340 cartesian basis functions
   158 alpha electrons      158 beta electrons
       nuclear repulsion energy      5442.1974913172 Hartrees.
 NAtoms=   94 NActive=   94 NUniq=   94 SFac= 1.00D+00 NAtFMM=   60 NAOKFM=T Big=T
 Integral buffers will be    131072 words long.
 Raffenetti 2 integral format.
 Two-electron integral symmetry is turned off.
 Standard density basis: Auto (5D, 7F)
  5973 Density fitting functions
 Force inversion solution in PCM.
 ------------------------------------------------------------------------------
 Polarizable Continuum Model (PCM)
 =================================
 Model                : PCM.
 Atomic radii         : SMD-Coulomb.
 Polarization charges : Total charges.
 Charge compensation  : None.
 Solution method      : Matrix inversion.
 Cavity type          : VdW (van der Waals Surface) (Alpha=1.000).
 Cavity algorithm     : GePol (No added spheres)
                        Default sphere list used, NSphG=   94.
                        Lebedev-Laikov grids with approx.  5.0 points / Ang**2.
                        Smoothing algorithm: York/Karplus (Gamma=1.0000).
                        Polarization charges: spherical gaussians, with
                                              point-specific exponents (IZeta= 3).
                        Self-potential: point-specific (ISelfS= 7).
                        Self-field    : sphere-specific E.n sum rule (ISelfD= 2).
 1st derivatives      : Analytical E(r).r(x)/FMM algorithm (CHGder, D1EAlg=3).
                        Cavity 1st derivative terms included.
 2nd derivatives      : Analytical E(r).r(xy)/FMM algorithm (CHGder, D2EAlg=3).
                        Cavity 2nd derivative terms included.
 Solvent              : n,n-DiMethylFormamide, Eps=  37.219000 Eps(inf)=   2.046330
 ------------------------------------------------------------------------------
 ------------------------------------------------------------------------------
 Atomic radii for non-electrostatic terms: SMD-CDS.
 ------------------------------------------------------------------------------
 Nuclear repulsion after PCM non-electrostatic terms =     5442.1908550422 Hartrees.
 One-electron integrals computed using PRISM.
   1 Symmetry operations used in ECPInt.
 ECPInt:  NShTT=  135460 NPrTT=  418131 LenC2=  106367 LenP2D=  220222.
 LDataN:  DoStor=T MaxTD1= 6 Len=  172
 Number of processors reduced to  52 by ecpmxn.
 NBasis=  1294 RedAO= T EigKep=  1.00D-06  NBF=  1294
 NBsUse=  1278 1.00D-06 EigRej=  8.33D-07 NBFU=  1278
 NBasis=     1294 NBas6D=     1340 NTT=      837865   NTT6D=   898470
 NDBShl=      975 NDBF=       5973 NDBF6D=     7016  NNucDB=        0
 IDenFi=        2 ISolve=        0 FullAP=F BlkAPC=T NucTyp=        0
 TolInv= 1.00D-06 TolIt=  1.00D-10 IR12=0.
 FoFCou: FMM=F IPFlag=           0 FMFlag=           0 FMFlg1=           0
         NFxFlg=           0 DoJE=F BraDBF=T KetDBF=T FulRan=T
         wScrn=  0.000000 ICntrl=       600 IOpCl=  3 I1Cent=           6 NGrid=           0
         NMat0=    1 NMatS0=   7016 NMatT0=    0 NMatD0=    1 NMtDS0=    0 NMtDT0=    0
 Symmetry not used in FoFCou.
 DBF EigKep=  1.00D-06 EigRej=  9.95D-07
 NDBF=   5973  NBFD=  5973
 NRank=  5547 NBFDU=  5547
 S*AI*S=  19.9171892498    
 ExpMin= 1.00D-02 ExpMax= 8.59D+03 ExpMxC= 1.30D+03 IAcc=3 IRadAn=         5 AccDes= 0.00D+00
 Harris functional with IExCor= 1009 and IRadAn=       5 diagonalized for initial guess.
 HarFok:  IExCor= 1009 AccDes= 0.00D+00 IRadAn=         5 IDoV= 1 UseB2=F ITyADJ=14
 ICtDFT=  3500011 ScaDFX=  1.000000  1.000000  1.000000  1.000000
 FoFCou: FMM=F IPFlag=           0 FMFlag=      100000 FMFlg1=        2001
         NFxFlg=           0 DoJE=T BraDBF=F KetDBF=T FulRan=T
         wScrn=  0.000000 ICntrl=       500 IOpCl=  0 I1Cent=   200000004 NGrid=           0
         NMat0=    1 NMatS0=      1 NMatT0=    0 NMatD0=    1 NMtDS0=    0 NMtDT0=    0
 Symmetry not used in FoFCou.
 Requested convergence on RMS density matrix=1.00D-08 within  32 cycles.
 Requested convergence on MAX density matrix=1.00D-06.
 Requested convergence on             energy=1.00D-06.
 No special actions if energy rises.
 FoFCou: FMM=F IPFlag=           0 FMFlag=      100000 FMFlg1=        2001
         NFxFlg=           0 DoJE=T BraDBF=T KetDBF=F FulRan=T
         wScrn=  0.000000 ICntrl=       500 IOpCl=  0 I1Cent=           5 NGrid=           0
         NMat0=    1 NMatS0=      1 NMatT0=    0 NMatD0=    1 NMtDS0=    0 NMtDT0=    0
 Symmetry not used in FoFCou.
 Inv3:  Mode=1 IEnd=   101547372.
 Iteration    1 A*A^-1 deviation from unit magnitude is 3.00D-15 for   2379.
 Iteration    1 A*A^-1 deviation from orthogonality  is 2.89D-15 for   5119    471.
[...]
 00000658,0.00002015,0.00003305,-0.00000091,-0.00000032,-0.00000635,0.0
 0000262,0.00000085,-0.00000698,0.00000132,-0.00002128,-0.00000396,0.00
 000481,0.00001997,-0.00000759,-0.00000362,0.00003049,-0.00000485,-0.00
 000464,-0.00007031,0.00003006,-0.00001299,0.00000345,-0.00000010,-0.00
 000257,-0.00001074,0.00000435,0.00000096,0.00009068,-0.00002196,-0.000
 03528,-0.00000797,-0.00045310,0.00062242,0.00018786,0.00002377,0.00011
 795,0.00035711,-0.00019034,-0.00014837,0.00000136,0.00000377,-0.000003
 20,0.00000085,0.00000179,-0.00000015,0.00000161,0.00000060,-0.00000082
 ,-0.00000054,0.00000209,0.00000138,-0.00000152,-0.00000052,0.00000200,
 -0.00000192,0.00000191,-0.00000230,-0.00000123,0.00000234,0.00000018,-
 0.00000274,-0.00000020,0.00000255,-0.00000364,-0.00000154,-0.00000149,
 0.00000447,0.00000558,-0.00000770,0.00000570,0.00000137,0.00000030,0.0
 0000306,-0.00000289,0.00000025,0.00059358,0.00104562,0.00004879,0.0003
 9825,-0.00016114,-0.00053629,0.00263000,0.00159278,0.00075803,-0.12142
 524,-0.19078470,-0.02484280,-0.00000272,0.00000093,0.00000051,0.000001
 21,-0.00000058,-0.00000178,-0.00000047,-0.00000280,0.00000072,0.000008
 25,0.00000200,-0.00000882,0.00000086,-0.00000231,0.00000171,-0.0000710
 2,0.00008624,0.00009796,-0.00000992,-0.00005890,-0.00000140,-0.0001497
 5,0.00013880,-0.00008234,0.00000028,0.00000213,0.00000045,-0.00000274,
 -0.00000316,-0.00000102,-0.00000146,0.00000084,0.00000226,-0.00000039,
 0.00000061,-0.00000018,-0.00000033,-0.00000200,0.00000249,0.00000190,0
 .00000194,-0.00000181,0.00000001,0.00000269,-0.00000088,-0.00000039,0.
 00000043,0.00000034,0.00000031,-0.00000008,0.00000026,-0.00000030,0.00
 000217,-0.00000060,0.00000214,-0.00000246,0.00000105,0.00000056,0.0000
 0048,0.,-0.00000006,0.00000167,-0.00000057,-0.00000075,-0.00000020,0.0
 0000033,0.00000134,0.00000086,-0.00000025,0.00000186,0.00000078,0.0000
 0165,-0.00000012,-0.00000244,-0.00000460,-0.00000017,0.00000129,0.0000
 0168,-0.00000064,-0.00000026,0.00000013,0.00000014,-0.00000043,-0.0000
 0018,0.00000045,0.00000005,0.00000070,-0.00000242,0.00000058,-0.000001
 04,-0.00000019,0.00000059,0.00000057,0.00000039,-0.00000066,-0.0000001
 0,0.00000082,0.00000002,-0.00000042,0.00000116,-0.00000052,0.00000042,
 -0.00000157,0.00000112,0.00000189,0.00000193,-0.00000228,0.00000364,0.
 00000005,-0.00000363,-0.00000072,0.00000131,0.00000242,0.00000143,0.00
 000009,-0.00000098,0.00000126,-0.00000075,0.00000045,-0.00000031,0.000
 00165,-0.00000082,-0.00000148,0.00000171,0.00000035,-0.00000108,0.0000
 0003,0.00000065,0.00000086,-0.00000032,-0.00000201,0.00000117,-0.00054
 823,0.00030430,-0.00013637,-0.00006224,0.00014922,0.00002007,0.0000028
 0,0.00125604,-0.00024249,-0.00009501,0.00012924,-0.00024634,-0.0001678
 6,0.00027886,0.00036523,0.00058132,0.00118708,-0.00010674,-0.01764143,
 -0.01907577,-0.00366836,0.13526988,0.20446129,0.00005912,0.00004603,0.
 00007311,0.00003719,-0.00003642,-0.00001592,0.00002978,-0.00000138,-0.
 00001411,-0.00003673,0.00003086,0.00012237,-0.00019960,0.00071152,0.00
 016135,0.00000938,0.00000028,-0.00000031,0.00002073,-0.00000027,-0.000
 00112,-0.00004047,-0.00000564,-0.00000045,-0.00007158,0.00002284,0.000
 00154,0.00000355,-0.00000299,-0.00000985,0.00006364,-0.00009853,-0.000
 03251,0.00000367,-0.00000256,0.00000094,-0.00000986,-0.00004729,0.0000
 0818,0.00000080,0.00000371,-0.00000186,-0.00000724,0.00000526,0.000004
 33,0.00000285,-0.00000347,0.00000115,-0.00002913,0.00001227,0.00000651
 ,-0.00000678,0.00000025,0.00000093,0.00005640,0.00000626,0.00000960,-0
 .00000319,-0.00000294,0.00000052,0.00000842,-0.00000317,-0.00000364,-0
 .00001382,0.00003512,0.00000049,0.00007813,0.00062952,-0.00017558,0.00
 006406,-0.00000354,-0.00027876,0.00040462,-0.00078652,0.00135130,-0.00
 000177,-0.00000205,0.00000197,-0.00000078,-0.00000118,-0.00000022,-0.0
 0000124,-0.00000033,-0.00000048,0.00000034,-0.00000245,-0.00000221,0.0
 0000438,-0.00000378,-0.00000303,0.00000098,-0.00000439,0.00000225,0.00
 000001,-0.00000143,-0.00000004,0.00000127,0.00000193,-0.00000226,0.000
 00118,0.00000162,0.00000147,-0.00000195,0.00000262,0.00000441,-0.00000
 461,-0.00000144,-0.00000038,-0.00000407,0.00000346,-0.00000052,-0.0009
 5537,0.00067608,0.00053716,-0.02070976,-0.02566209,-0.00529781,0.01544
 130,0.01745009,0.00118579,-0.02213312,-0.02467334,-0.05030029,0.000000
 72,0.00000002,-0.00000051,-0.00000252,-0.00000148,-0.00000083,0.000000
 13,0.00000061,-0.00000191,0.00000510,-0.00000086,-0.00000604,0.0000046
 6,0.00000059,-0.00000095,0.00015419,-0.00017012,-0.00020228,0.00001099
 ,0.00000031,-0.00001732,0.00026323,0.00008004,-0.00001008,-0.00000009,
 -0.00000092,-0.00000026,0.00000183,0.00000163,0.00000040,0.00000100,-0
 .00000070,-0.00000052,0.00000140,-0.00000047,0.00000045,-0.00000033,0.
 00000007,-0.00000261,-0.00000057,-0.00000048,0.00000067,-0.00000005,-0
 .00000133,0.00000041,-0.00000005,0.00000004,0.00000014,0.00000048,0.,0
 .00000031,0.00000117,-0.00000212,0.00000099,-0.00000233,0.00000318,-0.
 00000122,-0.00000073,-0.00000170,0.00000037,-0.00000072,-0.00000264,-0
 .00000008,-0.00000046,0.00000023,0.00000078,0.00000043,-0.00000084,0.0
 0000051,-0.00000169,-0.00000124,-0.00000107,0.,0.00000255,0.00000261,0
 .00000125,-0.00000213,-0.00000178,0.00000108,0.00000068,-0.00000013,0.
 00000040,0.00000049,0.00000043,-0.00000013,0.00000042,-0.00000032,0.00
 000098,-0.00000010,0.00000088,0.00000078,-0.00000056,-0.00000033,-0.00
 000021,-0.00000022,0.00000051,-0.00000001,0.00000026,-0.00000029,0.000
 00042,-0.00000014,-0.00000009,0.00000071,-0.00000073,-0.00000049,-0.00
 000200,0.00000059,-0.00000115,-0.00000022,0.00000029,0.00000181,0.0000
 0069,-0.00000026,-0.00000223,0.00000050,0.00000009,-0.00000010,0.00000
 027,0.00000128,-0.00000098,-0.00000269,0.00000138,0.00000271,-0.000002
 06,-0.00000134,0.00000091,-0.00000036,-0.00000024,0.00000060,0.0000000
 5,-0.00000081,0.00000012,-0.00026935,-0.00032214,0.00012291,-0.0002252
 3,0.00002505,-0.00010012,-0.00276321,0.00035243,-0.00594964,0.00070381
 ,0.00012973,0.00136869,-0.00075261,0.00027280,0.00092123,0.00431790,-0
 .00067366,-0.00212418,0.00399328,0.00430033,-0.00027511,0.02248152,0.0
 2773424,0.05893840,-0.02889066,-0.00625718,-0.03704747,-0.00016106,0.0
 0321706,0.00420274,-0.00175150,-0.00199401,-0.00202383,0.00062418,0.00
 032948,0.00809131,-0.00298002,0.00161716,-0.00659859,0.00022390,0.0000
 3840,-0.00044554,-0.00007658,-0.00024342,0.00027845,0.00054892,-0.0005
 5296,0.00019242,0.00150962,0.00054372,-0.00061716,-0.00032500,0.000694
 92,0.00036182,-0.00020601,-0.00007948,-0.00035685,-0.00015988,0.000342
 94,-0.00006021,-0.00018718,-0.00004335,0.00004789,-0.00000945,0.000002
 37,-0.00001677,-0.00002979,0.00008653,-0.00001000,-0.00014489,-0.00026
 936,0.00014996,0.00005966,0.00012497,0.00000959,0.00047450,-0.00018388
 ,-0.00015333,0.00015060,-0.00013060,0.00003446,0.00003250,0.00001128,-
 0.00000901,0.00010002,0.00002783,-0.00001798,0.00152193,-0.00010076,-0
 .00070518,0.00061551,0.00005108,-0.00019195,0.00036633,-0.00000107,-0.
 00023386,0.00021831,-0.00051554,0.00000574,-0.00004009,0.00001703,-0.0
 0001645,-0.00001103,0.00000343,-0.00000676,0.00000401,0.00000221,0.000
 00908,-0.00000184,-0.00005027,-0.00002696,0.00003551,-0.00000541,-0.00
 000936,0.00001162,-0.00006055,0.00001776,-0.00000387,0.00000634,-0.000
 00361,-0.00001567,-0.00000459,0.00001342,-0.00002380,-0.00000786,0.,-0
 .00005412,-0.00002007,0.00005168,-0.00007499,-0.00002119,-0.00002964,-
 0.00001921,0.00003794,-0.00000041,0.00004094,0.00014555,0.00015814,-0.
 00014564,-0.00006748,0.00011992,-0.00001458,-0.00001929,-0.00009032,0.
 00002063,-0.00000902,-0.00001322,0.00003339,0.00001265,0.00002840,-0.0
 0000057,-0.00001814,-0.00003890,-0.00000227,-0.00001231,0.00000004,-0.
 00001929,0.00004762,-0.00000513,0.00018552,-0.00022183,-0.00066877,0.0
 0026497,0.00002962,0.00046007,-0.00005980,0.00011085,-0.00008425,0.000
 16676,0.00000529,0.00007279,0.00001505,-0.00000872,0.00000285,0.000026
 51,-0.00001878,0.00001072,0.00000638,-0.00000818,0.00000125,-0.0000043
 0,-0.00000265,0.00000577,0.00000912,-0.00007223,-0.00001335,0.00000311
 ,-0.00000443,-0.00000258,0.00000127,-0.00000009,-0.00000111,0.00000076
 ,0.00000094,0.00000055,0.00000237,-0.00000071,0.00000306,0.00001482,-0
 .00001677,0.00001124,-0.00001442,0.00002808,-0.00001156,-0.00000719,-0
 .00000112,0.00000671,-0.00000334,-0.00002129,-0.00000098,-0.00000486,0
 .00000264,0.00000098,-0.00000358,-0.00000030,0.00000024,-0.00000750,-0
 .00000423,-0.00000136,0.00000059,0.00003103,0.00001532,0.00001535,-0.0
 0001930,-0.00002179,-0.00000235,-0.00000182,0.00000176,0.00000141,-0.0
 0000029,0.00000242,-0.00000006,-0.00000029,0.00000063,-0.00000925,0.00
 000402,-0.00000580,-0.00000074,-0.00000008,0.00000172,0.00000335,0.000
 00119,0.00000134,0.00000130,-0.00000058,-0.00000153,0.00000088,0.,-0.0
 0000105,-0.00000924,0.00000683,0.00000860,-0.00003347,0.00002278,-0.00
 001872,0.00000608,-0.00000218,0.00000117,0.00000261,-0.00000377,-0.000
 00349,0.00000030,-0.00000394,0.00000354,0.00000663,0.00000246,-0.00000
 483,-0.00002235,0.00002152,0.00003365,-0.00002024,-0.00000989,0.000004
 72,0.00000264,-0.00000354,-0.00000053,0.00000330,-0.00000444,0.0000023
 3,-0.00000763,-0.00003556,0.00000029,0.00001207,-0.00001110,-0.0000109
 1,0.00001760,-0.00001963,0.00000233,-0.00000355,0.00000870,-0.00001109
 ,-0.00002409,0.00001944,0.00000121,0.00000009,-0.00000501,0.00000431,0
 .00000821,0.00001064,0.00001347,0.00000585,-0.00000140,0.00001798,0.02
 820997,-0.00833089,-0.02194661,-0.02487915,0.00105009,-0.00230598,-0.0
 0499534,-0.00223349,-0.00082077,-0.00271289,0.00073248,0.00145042,0.00
 747711,0.00531433,-0.00038591,0.00745328,0.00019531,-0.00033018,0.0002
 7722,-0.00028997,-0.00042434,0.00027095,-0.00100820,0.00053374,0.00019
 076,0.00147152,0.00046838,0.00000382,-0.00015953,0.00078677,0.00010474
 ,0.00039155,0.00087412,0.00011323,0.00004459,0.00034874,-0.00007135,0.
 00002411,0.00047037,0.00003362,0.00002200,-0.00000241,0.00001302,-0.00
 003071,0.00002774,-0.00000941,-0.00033736,-0.00009103,0.00004744,0.000
 41111,-0.00017035,-0.00007713,0.00026583,-0.00016536,-0.00005413,-0.00
 043386,-0.00021150,0.00004662,-0.00001350,-0.00000150,0.00001321,0.000
 02200,0.00001541,-0.00000294,0.00107212,-0.00019353,-0.00073577,-0.001
 39365,-0.00026252,0.00004723,0.00016283,0.00042169,-0.00041011,-0.0002
 8585,-0.00036915,-0.00009544,0.00000635,0.00000002,-0.00000522,0.00001
 813,0.00000416,-0.00000578,-0.00000166,-0.00000137,-0.00000406,-0.0000
 1769,-0.00001215,0.00000587,0.00001218,-0.00000055,0.00000483,0.000006
 48,-0.00002359,-0.00000517,-0.00000182,-0.00000458,0.00000266,0.000002
 25,-0.00000137,-0.00000645,0.00000222,0.00000336,0.00000296,-0.0000200
 4,-0.00000724,0.00001762,-0.00002487,-0.00000996,-0.00000967,-0.000007
 51,0.00001330,-0.00000027,0.00014162,0.00020577,0.00022587,0.00011003,
 0.00030226,0.00016511,-0.00007062,-0.00004492,-0.00010482,0.00004850,-
 0.00007315,0.00005184,-0.00003438,-0.00001508,-0.00002145,0.00001811,-
 0.00001699,-0.00004925,-0.00001036,-0.00000588,-0.00001398,-0.00000352
 ,-0.00000683,-0.00002571,0.00015416,-0.00016393,-0.00054441,-0.0003528
 4,-0.00003778,-0.00054733,-0.00002349,0.00010085,-0.00008516,0.0000826
 4,0.00007217,0.00008776,0.00000082,0.00000293,-0.00000161,-0.00001007,
 0.00001190,-0.00000670,-0.00000336,-0.00000013,0.00000126,0.00000535,-
 0.00000056,-0.00000389,-0.00006968,0.00012750,0.00002765,-0.00001037,0
 .00000359,0.00000391,0.00000060,0.00000071,-0.00000030,-0.00000206,0.0
 0000373,0.00000181,-0.00000286,0.00000140,-0.00000172,0.00001236,0.000
 01042,0.00000458,0.00005466,0.00006281,0.00000675,-0.00000038,0.000000
 90,-0.00000022,-0.00000132,-0.00000256,-0.00000136,-0.00000025,0.00000
 290,-0.00000108,0.00000215,0.00000286,-0.00000217,-0.00000251,-0.00000
 027,0.00000389,0.00001120,0.00001882,0.00000589,0.00000358,-0.00000155
 ,-0.00000610,0.00000083,0.00000059,-0.00000006,-0.00000228,-0.00000034
 ,0.00000084,-0.00000025,-0.00000006,-0.00000165,-0.00000122,-0.0000039
 6,0.00000239,0.00000074,0.00000128,0.00000054,0.,-0.00000205,0.0000005
 0,0.00000003,-0.00000221,-0.00000163,-0.00000117,-0.00000057,0.0000005
 4,0.00000103,-0.00000291,-0.00000174,-0.00000981,0.00000513,-0.0000065
 1,0.00000123,-0.00000236,0.00000153,0.00000140,-0.00000039,-0.00000328
 ,-0.00000019,0.00000018,0.00000177,0.00000254,-0.00000036,-0.00000224,
 -0.00000706,0.00000559,0.00001121,-0.00000217,-0.00000518,0.00000125,0
 .00000049,-0.00000280,-0.00000036,0.00000053,-0.00000384,0.00000229,-0
 .00007651,-0.00010309,-0.00008674,-0.00001699,-0.00005171,-0.00003482,
 -0.00005334,0.00007732,-0.00001317,-0.00001454,0.00002849,-0.00000561,
 -0.00002152,0.00003077,-0.00001588,0.00001754,-0.00002020,0.00000500,-
 0.00000513,0.00000091,-0.00000665,-0.00000415,-0.00000140,-0.00001466,
 0.00350538,0.02181501,-0.03613707,-0.01664936,-0.15413650,-0.00004387,
 -0.00073539,0.00173241,0.00074444,0.00020656,0.00308753,-0.00091638,-0
 .00066234,-0.00043811,0.00265208,-0.00145512,0.00205360,0.00003602,0.0
 0029615,-0.00019201,-0.00031273,0.00031741,-0.00023103,0.00001193,-0.0
 0005712,-0.00034798,0.00017528,-0.00041732,-0.00029156,-0.00000051,-0.
 00052226,0.00011134,0.00023257,-0.00001329,0.00020472,0.00007207,-0.00
 011895,0.00002088,0.00002197,0.00010985,-0.00000332,0.00005153,0.00013
 775,-0.00009298,-0.00001075,0.00015479,-0.00000106,0.00029939,0.000083
 52,-0.00002493,-0.00006616,-0.00016184,0.00008493,-0.00004908,-0.00016
 868,0.00007083,-0.00029702,-0.00020715,0.00001323,-0.00012655,-0.00008
 922,0.00003617,0.00010068,0.00003777,-0.00002652,-0.00029790,0.0006485
 3,-0.00001157,-0.00089577,0.00046101,0.00026722,0.00014485,-0.00040850
 ,-0.00009153,-0.00062402,0.00012409,-0.00026327,-0.00005559,-0.0000363
 1,0.00005913,-0.00001521,-0.00008126,-0.00001169,-0.00006775,-0.000016
 47,0.00003963,0.00002447,-0.00006269,-0.00005444,0.00006106,-0.0000240
 2,-0.00000888,0.00004458,-0.00002433,0.00000964,0.00003973,-0.00006448
 ,0.00000398,0.00009432,0.00002221,-0.00011036,0.00011868,0.00005932,0.
 00005033,-0.00006935,-0.00002724,0.00007690,-0.00009396,-0.00002767,-0
 .00004811,-0.00003447,0.00005362,0.00000649,-0.00001500,0.00003842,0.0
 0013842,0.00026683,0.00003886,0.00015781,-0.00003279,-0.00004273,-0.00
 008056,0.00002017,-0.00001317,0.00001508,0.00006536,-0.00001519,-0.000
 00067,-0.00005666,-0.00000178,0.00003211,0.00003426,0.00006171,-0.0000
 4201,-0.00004870,0.00005688,-0.00001199,0.00005732,0.00006974,0.000062
 35,-0.00021087,-0.00000429,-0.00017110,0.00004035,0.00013103,-0.000035
 36,0.00004559,0.00018100,0.00007008,-0.00001585,-0.00006117,-0.0000104
 3,0.00005742,0.00005231,0.00001291,0.00002118,-0.00001707,-0.00000293,
 0.00002580,-0.00001971,0.00001526,0.00005307,-0.00014457,-0.00009813,-
 0.00002295,-0.00002167,0.00004867,0.00000227,-0.00004307,0.00000902,0.
 00000441,0.00000196,0.00000217,0.00001200,-0.00000425,-0.00000360,0.00
 001199,-0.00005160,0.00003397,-0.00008400,0.00000389,-0.00006858,-0.00
 001909,-0.00002335,0.00002749,-0.00000497,-0.00003971,-0.00000102,-0.0
 0001359,-0.00000242,0.00000715,-0.00000763,-0.00000096,0.00000254,-0.0
 0002874,-0.00002099,0.00000007,-0.00002276,0.00001650,0.00005652,0.000
 00381,-0.00004407,-0.00003156,0.00003465,0.00001894,-0.00001103,-0.000
 00454,0.00000605,0.00000226,-0.00000377,0.00000786,-0.00000020,0.00005
 698,-0.00001774,0.00004471,-0.00000093,0.00000908,0.00000917,-0.000011
 58,0.00000081,-0.00000481,-0.00001044,0.00000557,0.00000858,-0.0000080
 1,0.00000348,-0.00000482,0.00004091,-0.00004080,-0.00004947,-0.0000415
 2,0.00002423,-0.00002801,0.00000822,-0.00000426,0.00000172,0.00000303,
 -0.00000309,-0.00000461,0.00000581,-0.00000697,0.00000828,0.00000737,-
 0.00000165,-0.00000691,-0.00002702,0.00002623,0.00004516,-0.00002910,-
 0.00001266,0.00000580,0.00000513,-0.00000350,0.00000220,0.00000136,-0.
 00000627,-0.00000211,0.00001398,0.00006142,-0.00000525,-0.00000168,0.0
 0002433,-0.00002508,-0.00004779,0.00010727,-0.00003385,-0.00003074,0.0
 0002959,-0.00001817,-0.00002512,0.00003873,-0.00002416,0.00000627,0.00
 001579,0.00000846,-0.00002168,0.00001352,-0.00001438,0.00000413,-0.000
 01023,0.00000179,0.03512638,0.01895221,0.14841795\\0.00000724,0.000000
 39,-0.00000695,-0.00000204,0.00000277,0.00000100,0.00000175,0.00000198
 ,0.00000113,-0.00000148,-0.00000019,0.00000909,0.00000114,-0.00000053,
 0.00000228,-0.00000180,-0.00000085,0.00000350,-0.00000019,-0.00000154,
 -0.00000520,0.00000506,0.00000139,0.00000382,0.00000024,-0.00000274,0.
 00000263,-0.00000585,-0.00000058,-0.00000767,-0.00000047,-0.00000607,-
 0.00000266,0.00000326,0.00000518,0.00000977,-0.00000382,-0.00000161,0.
 00000219,0.00000057,-0.00000028,-0.00000213,0.00000131,-0.00000127,-0.
 00000394,0.00000145,-0.00000232,-0.00000821,-0.00000022,-0.00000049,-0
 .00000003,-0.00000078,0.00000122,-0.00000133,0.00000133,-0.00000346,-0
 .00000060,-0.00000296,0.00000212,-0.00000028,0.00000226,-0.00000340,-0
 .00000197,0.00000536,0.00000717,0.00000029,-0.00000471,0.00000299,0.00
 000471,-0.00000828,-0.00000410,0.00000634,0.00000224,0.00000157,0.0000
 0324,0.00000063,0.00000085,-0.00000416,-0.00000017,-0.00000231,-0.0000
 0065,0.00000024,-0.00000011,-0.00000702,0.,-0.00000154,-0.00000277,0.0
 0000097,-0.00000206,-0.00000506,0.00000078,0.00000078,-0.00000423,0.00
 000152,0.00000333,0.00000166,0.00000162,0.00000180,0.00000009,-0.00000
 087,0.00000399,0.00000025,-0.00000109,-0.00000166,0.00000054,-0.000001
 29,-0.00000412,0.00000035,-0.00000056,-0.00000165,-0.00000171,0.000007
 67,0.00000272,0.00000116,-0.00000276,0.00000284,0.00000805,-0.00000149
 ,0.00000476,0.00000527,-0.00000129,-0.00000162,0.00000389,-0.00000046,
 0.00000388,-0.00000223,0.00000100,-0.00000169,-0.00000334,0.00000106,0
 .00000222,0.00000302,-0.00000099,-0.00000305,0.00000268,-0.00000183,0.
 00000056,0.00000228,-0.00000025,-0.00000115,0.00000276,-0.00000162,-0.
 00000008,0.00001306,-0.00000020,-0.00000321,0.00000410,0.00000092,0.00
 000056,-0.00000506,0.00000159,0.00000089,-0.00000321,0.00000061,0.0000
 0180,-0.00000352,0.00000019,-0.00000261,-0.00000251,0.00000076,-0.0000
 0220,-0.00000327,0.00000033,-0.00000235,-0.00000395,0.00000113,-0.0000
 0037,-0.00000487,0.00000086,0.00000143,-0.00000474,0.00000060,-0.00000
 003,-0.00000336,0.00000042,-0.00000210,-0.00000516,-0.00000044,-0.0000
 0162,-0.00000268,-0.00000073,-0.00000355,-0.00000356,0.00000036,-0.000
 00155,-0.00000604,0.00000093,-0.00000240,-0.00000470,0.00000102,-0.000
 00089,-0.00000512,0.00000059,0.00000156,-0.00000343,0.00000069,0.00000
 156,-0.00000214,0.00000059,0.00000063,-0.00000437,-0.00000037,0.000003
 65,0.00000216,-0.00000016,0.00000405,0.00000251,-0.00000031,0.00000213
 ,0.00000345,0.00000002,0.00000124,-0.00000021,-0.00000032,-0.00000011,
 0.00000121,-0.00000041,0.00000084,-0.00000155,0.00000067,0.00000357,-0
 .00000099,0.00000070,0.00000466,-0.00000052,0.00000073,0.00000415,-0.0
 0000037,-0.00000012,-0.00000246,0.00000090,-0.00000051,-0.00000186,0.0
 0000152,0.00000003,-0.00000080,-0.00000031,0.00000003,-0.00000545,0.00
 000007,-0.00000035,-0.00000504,0.00000147,-0.00000108,-0.00000504,0.,0
 .00000030,-0.00000380,-0.00000222,0.00000033,-0.00000222,-0.00000285,-
 0.00000005,-0.00000413,-0.00000284,-0.00000148,0.00000604,0.00000319,-
 0.00000261,0.00000004,0.00000108,-0.00000075,0.00000064,0.00000591,-0.
 00000006,-0.00000003,0.00000613,-0.00000083,0.00000411,0.00000539,-0.0
 0000256,0.00000315,0.00000715,-0.00000092,0.00000211,0.00000687,-0.000
 00030,0.00000305,0.00000491,-0.00000126,-0.00000211,0.00000259\\\@
 The archive entry for this job was punched.


 WOMEN HOLD UP HALF THE SKY. -- MAO TSE TUNG
 Job cpu time:       4 days 23 hours 26 minutes 28.5 seconds.
 Elapsed time:       0 days  1 hours 15 minutes 30.3 seconds.
 File lengths (MBytes):  RWF=  12000 Int=      0 D2E=      0 Chk=    423 Scr=      1
 Normal termination of Gaussian 16 at Thu Dec 11 02:49:43 2025.
1308257.57user 2304.66system 3:50:31elapsed 9475%CPU (0avgtext+0avgdata 63234004maxresident)k
1150504inputs+5685304outputs (15237major+282972170minor)pagefaults 0swaps
