 Entering Gaussian System, Link 0=g16
 Initial command:
 /common/software/install/migrated/gaussian/g16.c01.avx2/g16/l1.exe "/tmp/quach062/27485141/Gau-3426625.inp" -scrdir="/tmp/quach062/27485141/"
 Entering Link 1 = /common/software/install/migrated/gaussian/g16.c01.avx2/g16/l1.exe PID=   3426627.
  
 Copyright (c) 1988-2019, Gaussian, Inc.  All Rights Reserved.
  
 This is part of the Gaussian(R) 16 program.  It is based on
 the Gaussian(R) 09 system (copyright 2009, Gaussian, Inc.),
 the Gaussian(R) 03 system (copyright 2003, Gaussian, Inc.),
 the Gaussian(R) 98 system (copyright 1998, Gaussian, Inc.),
 the Gaussian(R) 94 system (copyright 1995, Gaussian, Inc.),
 the Gaussian 92(TM) system (copyright 1992, Gaussian, Inc.),
 the Gaussian 90(TM) system (copyright 1990, Gaussian, Inc.),
 the Gaussian 88(TM) system (copyright 1988, Gaussian, Inc.),
 the Gaussian 86(TM) system (copyright 1986, Carnegie Mellon
 University), and the Gaussian 82(TM) system (copyright 1983,
 Carnegie Mellon University). Gaussian is a federally registered
 trademark of Gaussian, Inc.
  
 This software contains proprietary and confidential information,
 including trade secrets, belonging to Gaussian, Inc.
  
 This software is provided under written license and may be
 used, copied, transmitted, or stored only in accord with that
 written license.
  
 The following legend is applicable only to US Government
 contracts under FAR:
  
                    RESTRICTED RIGHTS LEGEND
  
 Use, reproduction and disclosure by the US Government is
 subject to restrictions as set forth in subparagraphs (a)
 and (c) of the Commercial Computer Software - Restricted
 Rights clause in FAR 52.227-19.
  
 Gaussian, Inc.
 340 Quinnipiac St., Bldg. 40, Wallingford CT 06492
  
  
 ---------------------------------------------------------------
 Warning -- This program may not be used in any manner that
 competes with the business of Gaussian, Inc. or will provide
 assistance to any competitor of Gaussian, Inc.  The licensee
 of this program is prohibited from giving any competitor of
 Gaussian, Inc. access to this program.  By using this program,
 the user acknowledges that Gaussian, Inc. is engaged in the
 business of creating and licensing software in the field of
 computational chemistry and represents and warrants to the
 licensee that it is not a competitor of Gaussian, Inc. and that
 it will not use this program in any manner prohibited above.
 ---------------------------------------------------------------
  

 Cite this work as:
 Gaussian 16, Revision C.01,
 M. J. Frisch, G. W. Trucks, H. B. Schlegel, G. E. Scuseria, 
 M. A. Robb, J. R. Cheeseman, G. Scalmani, V. Barone, 
 G. A. Petersson, H. Nakatsuji, X. Li, M. Caricato, A. V. Marenich, 
 J. Bloino, B. G. Janesko, R. Gomperts, B. Mennucci, H. P. Hratchian, 
 J. V. Ortiz, A. F. Izmaylov, J. L. Sonnenberg, D. Williams-Young, 
 F. Ding, F. Lipparini, F. Egidi, J. Goings, B. Peng, A. Petrone, 
 T. Henderson, D. Ranasinghe, V. G. Zakrzewski, J. Gao, N. Rega, 
 G. Zheng, W. Liang, M. Hada, M. Ehara, K. Toyota, R. Fukuda, 
 J. Hasegawa, M. Ishida, T. Nakajima, Y. Honda, O. Kitao, H. Nakai, 
 T. Vreven, K. Throssell, J. A. Montgomery, Jr., J. E. Peralta, 
 F. Ogliaro, M. J. Bearpark, J. J. Heyd, E. N. Brothers, K. N. Kudin, 
 V. N. Staroverov, T. A. Keith, R. Kobayashi, J. Normand, 
 K. Raghavachari, A. P. Rendell, J. C. Burant, S. S. Iyengar, 
 J. Tomasi, M. Cossi, J. M. Millam, M. Klene, C. Adamo, R. Cammi, 
 J. W. Ochterski, R. L. Martin, K. Morokuma, O. Farkas, 
 J. B. Foresman, and D. J. Fox, Gaussian, Inc., Wallingford CT, 2019.
 
 ******************************************
 Gaussian 16:  ES64L-G16RevC.01  3-Jul-2019
                28-Nov-2024 
 ******************************************
 %chk=CoIR_S_prod_forMD.chk
 %lindaworkers=in-cn0088
 %nprocshared=128
 Will use up to  128 processors via shared memory.
 %mem=59800MB
 SetLPE:  input flags=" -workerwait 900 -opt "Tsnet.Node.lindarsharg: ssh " "
 SetLPE:    new flags=" -workerwait 900 -opt "Tsnet.Node.lindarsharg: ssh " -opt 'Tsnet.Node.lindarsharg: ssh'  -nodelist 'in-cn0088' -env GAUSS_MDEF=7838105600 -env GAUSS_EXEDIR="/common/software/install/migrated/gaussian/g16.c01.avx2/g16/bsd:/common/software/install/migrated/gaussian/g16.c01.avx2/g16/local:/common/software/install/migrated/gaussian/g16.c01.avx2/g16/extras:/common/software/install/migrated/gaussian/g16.c01.avx2/g16""
 Will use up to    1 processors via Linda.
 ----------------------------------------------------------------------
 # opt=calcfc # freq # m06l/genecp/auto # nosymm integral=grid=ultrafin
 e # scf=(tight,intrep,xqc) # SCRF=(SMD,Solvent=n,n-DiMethylFormamide)
 ----------------------------------------------------------------------
 1/10=4,18=20,19=15,26=6,38=1/1,3;
 2/9=110,12=2,15=1,17=6,18=5,40=1/2;
 3/5=7,11=2,16=1,17=8,25=1,30=1,70=32201,71=2,72=148,74=-53,75=-5,82=28,140=1/1,2,3;
 4//1;
 5/5=2,8=3,13=1,17=20,32=2,38=5,53=148/2,8;
 8/6=4,10=90,11=11/1;
 11/6=1,8=1,9=11,15=111,16=1,31=1/1,2,10;
 10/6=1,13=1,31=1/2;
 6/7=2,8=2,9=2,10=2,28=1/1;
 7/10=1,25=1,30=1/1,2,3,16;
 1/10=4,18=20,19=15,26=6/3(2);
 2/9=110,15=1/2;
 99//99;
 2/9=110,15=1/2;
 3/5=7,6=1,11=2,16=1,17=8,25=1,30=1,70=32205,71=1,72=148,74=-53,75=-5,82=7/1,2,3;
 4/5=5,16=3,69=1/1;
 5/5=2,8=3,13=1,17=20,32=2,38=5,53=148/2,8;
 7/30=1/1,2,3,16;
 1/18=20,19=15,26=6/3(-5);
 2/9=110,15=1/2;
 6/7=2,8=2,9=2,10=2,19=2,28=1/1;
 99/9=1/99;
 -------------
 Input: Ts.out
 -------------
 Symbolic Z-matrix:
 Charge = -1 Multiplicity = 1
 Co                    0.06193   0.37599  -1.42597 
 O                     1.27615  -1.08786  -1.62551 
 O                    -1.30761  -0.93547  -1.32341 
 N                     1.33197   1.61794  -2.06902 
 N                    -1.14226   1.82386  -1.4237 
 C                     3.32333  -2.26582  -1.72574 
 C                    -3.43588  -1.89587  -0.97022 
 C                     2.55241  -1.05743  -1.85211 
 C                    -2.57932  -0.7579   -1.13209 
 C                     3.24002   0.13035  -2.26115 
 C                    -3.1774    0.54248  -1.07655 
 C                     5.35767  -1.06015  -2.47253 
 C                    -5.37542  -0.40336  -0.59101 
 C                     2.66226  -3.55746  -1.23137 
 C                    -2.86865  -3.31415  -1.10608 
 C                     4.67117  -2.21834  -2.03923 
 C                    -4.78083  -1.67696  -0.69645 
 C                     4.61871   0.09799  -2.57098 
 C                    -4.55141   0.68477  -0.8066 
 C                     6.84689  -1.14883  -2.80061 
 C                    -6.85236  -0.19786  -0.24677 
 C                     2.56073   1.37658  -2.41121 
 C                    -2.42408   1.74591  -1.25195 
 C                     0.73836   2.91677  -2.42082 
 C                    -0.44028   3.12474  -1.47348 
 C                     1.50888  -3.97074  -2.15849 
 C                     2.12383  -3.34632   0.19245 
 C                     3.65049  -4.72413  -1.17983 
 C                    -1.76244  -3.56621  -0.06926 
 C                    -3.94074  -4.38505  -0.89578 
 C                    -2.30103  -3.50377  -2.52161 
 C                     7.41568   0.19863  -3.23977 
 C                     7.62023  -1.62147  -1.56215 
 C                     7.06111  -2.15928  -3.93581 
 C                    -7.53689   0.60105  -1.36338 
 C                    -6.95956   0.59046   1.06609 
 C                    -7.59793  -1.52027  -0.07505 
 C                     0.28508   2.90595  -3.88173 
 C                    -1.26917   4.34256  -1.85891 
 C                    -0.50229   4.1599   -4.23593 
 C                    -1.70736   4.32221  -3.31795 
 H                     5.25029  -3.13148  -1.94681 
 H                    -5.41426  -2.5434   -0.5523 
 H                     5.07763   1.02904  -2.89211 
 H                    -4.94952   1.69674  -0.75217 
 H                     3.13612   2.19544  -2.85608 
 H                    -3.0054    2.6701   -1.22065 
 H                     1.47546   3.71628  -2.26907 
 H                    -0.03596   3.27317  -0.46344 
 H                     1.07239  -4.91514  -1.81433 
 H                     0.72445  -3.21468  -2.17902 
 H                     1.86597  -4.12763  -3.1824 
 H                     2.93295  -3.08096   0.88177 
 H                     1.37435  -2.5543    0.22219 
 H                     1.66049  -4.26723   0.56416 
 H                     3.1338   -5.61903  -0.81991 
 H                     4.06542  -4.96025  -2.16507 
 H                     4.48573  -4.53378  -0.49841 
 H                    -1.37588  -4.58628  -0.17621 
 H                    -0.93129  -2.87022  -0.18964 
 H                    -2.15395  -3.4703    0.94997 
 H                    -3.4899   -5.37529  -1.01294 
 H                    -4.3792   -4.34237   0.1064 
 H                    -4.75435  -4.30882  -1.624 
 H                    -3.08828  -3.3886   -3.27454 
 H                    -1.51208  -2.7822   -2.73696 
 H                    -1.883    -4.51073  -2.63158 
 H                     8.48145   0.09675  -3.46569 
 H                     6.92359   0.57645  -4.14148 
 H                     7.31652   0.95905  -2.4588 
 H                     8.69008  -1.69882  -1.78345 
 H                     7.50073  -0.92104  -0.72926 
 H                     7.28304  -2.60513  -1.22214 
 H                     6.7041   -3.15727  -3.66463 
 H                     6.5336   -1.85177  -4.84452 
 H                     8.12555  -2.24495  -4.17915 
 H                    -8.5935    0.76632  -1.12687 
 H                    -7.07348   1.58195  -1.50357 
 H                    -7.48746   0.06871  -2.31876 
 H                    -6.4907    0.0472    1.8933 
 H                    -6.47272   1.56769   0.99147 
 H                    -8.00892   0.76157   1.33007 
 H                    -8.64677  -1.32439   0.16765 
 H                    -7.5798   -2.12394  -0.98795 
 H                    -7.18151  -2.12478   0.73676 
 H                    -0.34104   2.0165   -4.03995 
 H                     1.16267   2.79005  -4.5262 
 H                    -0.6329    5.21917  -1.68568 
 H                    -2.11939   4.45885  -1.17982 
 H                    -0.81704   4.11798  -5.28326 
 H                     0.14879   5.03964  -4.1414 
 H                    -2.25192   5.24169  -3.5538 
 H                    -2.40865   3.49503  -3.48903 
 

 GradGradGradGradGradGradGradGradGradGradGradGradGradGradGradGradGradGrad
 Berny optimization.
 Initialization pass.
                           ----------------------------
                           !    Initial Parameters    !
                           ! (Angstroms and Degrees)  !
 --------------------------                            --------------------------
 ! Name  Definition              Value          Derivative Info.                !
 --------------------------------------------------------------------------------
 ! R1    R(1,2)                  1.9123         calculate D2E/DX2 analytically  !
 ! R2    R(1,3)                  1.899          calculate D2E/DX2 analytically  !
 ! R3    R(1,4)                  1.8892         calculate D2E/DX2 analytically  !
 ! R4    R(1,5)                  1.8832         calculate D2E/DX2 analytically  !
 ! R5    R(2,8)                  1.2966         calculate D2E/DX2 analytically  !
 ! R6    R(3,9)                  1.2982         calculate D2E/DX2 analytically  !
 ! R7    R(4,22)                 1.2982         calculate D2E/DX2 analytically  !
 ! R8    R(4,24)                 1.4707         calculate D2E/DX2 analytically  !
 ! R9    R(5,23)                 1.2956         calculate D2E/DX2 analytically  !
 ! R10   R(5,25)                 1.479          calculate D2E/DX2 analytically  !
 ! R11   R(6,8)                  1.4389         calculate D2E/DX2 analytically  !
 ! R12   R(6,14)                 1.5329         calculate D2E/DX2 analytically  !
 ! R13   R(6,16)                 1.3846         calculate D2E/DX2 analytically  !
 ! R14   R(7,9)                  1.4335         calculate D2E/DX2 analytically  !
 ! R15   R(7,15)                 1.5335         calculate D2E/DX2 analytically  !
 ! R16   R(7,17)                 1.3899         calculate D2E/DX2 analytically  !
 ! R17   R(8,10)                 1.4321         calculate D2E/DX2 analytically  !
 ! R18   R(9,11)                 1.4324         calculate D2E/DX2 analytically  !
 ! R19   R(10,18)                1.4134         calculate D2E/DX2 analytically  !
 ! R20   R(10,22)                1.4273         calculate D2E/DX2 analytically  !
 ! R21   R(11,19)                1.4075         calculate D2E/DX2 analytically  !
 ! R22   R(11,23)                1.4306         calculate D2E/DX2 analytically  !
 ! R23   R(12,16)                1.4144         calculate D2E/DX2 analytically  !
 ! R24   R(12,18)                1.3773         calculate D2E/DX2 analytically  !
 ! R25   R(12,20)                1.5275         calculate D2E/DX2 analytically  !
 ! R26   R(13,17)                1.4095         calculate D2E/DX2 analytically  !
 ! R27   R(13,19)                1.3818         calculate D2E/DX2 analytically  !
 ! R28   R(13,21)                1.5304         calculate D2E/DX2 analytically  !
 ! R29   R(14,26)                1.5364         calculate D2E/DX2 analytically  !
 ! R30   R(14,27)                1.5368         calculate D2E/DX2 analytically  !
 ! R31   R(14,28)                1.5298         calculate D2E/DX2 analytically  !
 ! R32   R(15,29)                1.537          calculate D2E/DX2 analytically  !
 ! R33   R(15,30)                1.5298         calculate D2E/DX2 analytically  !
 ! R34   R(15,31)                1.5368         calculate D2E/DX2 analytically  !
 ! R35   R(16,42)                1.0852         calculate D2E/DX2 analytically  !
 ! R36   R(17,43)                1.0829         calculate D2E/DX2 analytically  !
 ! R37   R(18,44)                1.0865         calculate D2E/DX2 analytically  !
 ! R38   R(19,45)                1.0888         calculate D2E/DX2 analytically  !
 ! R39   R(20,32)                1.5271         calculate D2E/DX2 analytically  !
 ! R40   R(20,33)                1.5347         calculate D2E/DX2 analytically  !
 ! R41   R(20,34)                1.5348         calculate D2E/DX2 analytically  !
 ! R42   R(21,35)                1.5342         calculate D2E/DX2 analytically  !
 ! R43   R(21,36)                1.5351         calculate D2E/DX2 analytically  !
 ! R44   R(21,37)                1.5278         calculate D2E/DX2 analytically  !
 ! R45   R(22,46)                1.0952         calculate D2E/DX2 analytically  !
 ! R46   R(23,47)                1.0923         calculate D2E/DX2 analytically  !
 ! R47   R(24,25)                1.5264         calculate D2E/DX2 analytically  !
 ! R48   R(24,38)                1.5297         calculate D2E/DX2 analytically  !
 ! R49   R(24,48)                1.098          calculate D2E/DX2 analytically  !
 ! R50   R(25,39)                1.5227         calculate D2E/DX2 analytically  !
 ! R51   R(25,49)                1.098          calculate D2E/DX2 analytically  !
 ! R52   R(26,50)                1.0958         calculate D2E/DX2 analytically  !
 ! R53   R(26,51)                1.0897         calculate D2E/DX2 analytically  !
 ! R54   R(26,52)                1.0957         calculate D2E/DX2 analytically  !
 ! R55   R(27,53)                1.0956         calculate D2E/DX2 analytically  !
 ! R56   R(27,54)                1.0908         calculate D2E/DX2 analytically  !
 ! R57   R(27,55)                1.0959         calculate D2E/DX2 analytically  !
 ! R58   R(28,56)                1.0942         calculate D2E/DX2 analytically  !
 ! R59   R(28,57)                1.0948         calculate D2E/DX2 analytically  !
 ! R60   R(28,58)                1.0946         calculate D2E/DX2 analytically  !
 ! R61   R(29,59)                1.0961         calculate D2E/DX2 analytically  !
 ! R62   R(29,60)                1.0907         calculate D2E/DX2 analytically  !
 ! R63   R(29,61)                1.096          calculate D2E/DX2 analytically  !
 ! R64   R(30,62)                1.0943         calculate D2E/DX2 analytically  !
 ! R65   R(30,63)                1.0947         calculate D2E/DX2 analytically  !
 ! R66   R(30,64)                1.0946         calculate D2E/DX2 analytically  !
 ! R67   R(31,65)                1.0954         calculate D2E/DX2 analytically  !
 ! R68   R(31,66)                1.0906         calculate D2E/DX2 analytically  !
 ! R69   R(31,67)                1.0958         calculate D2E/DX2 analytically  !
 ! R70   R(32,68)                1.0942         calculate D2E/DX2 analytically  !
 ! R71   R(32,69)                1.0945         calculate D2E/DX2 analytically  !
 ! R72   R(32,70)                1.0945         calculate D2E/DX2 analytically  !
 ! R73   R(33,71)                1.0952         calculate D2E/DX2 analytically  !
 ! R74   R(33,72)                1.0948         calculate D2E/DX2 analytically  !
 ! R75   R(33,73)                1.094          calculate D2E/DX2 analytically  !
 ! R76   R(34,74)                1.0941         calculate D2E/DX2 analytically  !
 ! R77   R(34,75)                1.0948         calculate D2E/DX2 analytically  !
 ! R78   R(34,76)                1.0953         calculate D2E/DX2 analytically  !
 ! R79   R(35,77)                1.0953         calculate D2E/DX2 analytically  !
 ! R80   R(35,78)                1.0939         calculate D2E/DX2 analytically  !
 ! R81   R(35,79)                1.0948         calculate D2E/DX2 analytically  !
 ! R82   R(36,80)                1.0951         calculate D2E/DX2 analytically  !
 ! R83   R(36,81)                1.0943         calculate D2E/DX2 analytically  !
 ! R84   R(36,82)                1.0955         calculate D2E/DX2 analytically  !
 ! R85   R(37,83)                1.0942         calculate D2E/DX2 analytically  !
 ! R86   R(37,84)                1.0946         calculate D2E/DX2 analytically  !
 ! R87   R(37,85)                1.0945         calculate D2E/DX2 analytically  !
 ! R88   R(38,40)                1.5224         calculate D2E/DX2 analytically  !
 ! R89   R(38,86)                1.0992         calculate D2E/DX2 analytically  !
 ! R90   R(38,87)                1.095          calculate D2E/DX2 analytically  !
 ! R91   R(39,41)                1.5236         calculate D2E/DX2 analytically  !
 ! R92   R(39,88)                1.097          calculate D2E/DX2 analytically  !
 ! R93   R(39,89)                1.0943         calculate D2E/DX2 analytically  !
 ! R94   R(40,41)                1.5236         calculate D2E/DX2 analytically  !
 ! R95   R(40,90)                1.0944         calculate D2E/DX2 analytically  !
 ! R96   R(40,91)                1.0985         calculate D2E/DX2 analytically  !
 ! R97   R(41,92)                1.0944         calculate D2E/DX2 analytically  !
 ! R98   R(41,93)                1.0979         calculate D2E/DX2 analytically  !
 ! A1    A(2,1,3)               86.2673         calculate D2E/DX2 analytically  !
 ! A2    A(2,1,4)               92.3419         calculate D2E/DX2 analytically  !
 ! A3    A(3,1,4)              163.1854         calculate D2E/DX2 analytically  !
 ! A4    A(3,1,5)               93.9994         calculate D2E/DX2 analytically  !
 ! A5    A(4,1,5)               85.6902         calculate D2E/DX2 analytically  !
 ! A6    A(1,2,8)              128.7013         calculate D2E/DX2 analytically  !
 ! A7    A(1,3,9)              128.3138         calculate D2E/DX2 analytically  !
 ! A8    A(1,4,22)             127.145          calculate D2E/DX2 analytically  !
 ! A9    A(1,4,24)             112.9945         calculate D2E/DX2 analytically  !
 ! A10   A(22,4,24)            118.8933         calculate D2E/DX2 analytically  !
 ! A11   A(1,5,23)             125.9111         calculate D2E/DX2 analytically  !
 ! A12   A(1,5,25)             111.882          calculate D2E/DX2 analytically  !
 ! A13   A(23,5,25)            121.7993         calculate D2E/DX2 analytically  !
 ! A14   A(8,6,14)             120.3242         calculate D2E/DX2 analytically  !
 ! A15   A(8,6,16)             118.2189         calculate D2E/DX2 analytically  !
 ! A16   A(14,6,16)            121.4475         calculate D2E/DX2 analytically  !
 ! A17   A(9,7,15)             120.2095         calculate D2E/DX2 analytically  !
 ! A18   A(9,7,17)             118.3871         calculate D2E/DX2 analytically  !
 ! A19   A(15,7,17)            121.4026         calculate D2E/DX2 analytically  !
 ! A20   A(2,8,6)              119.4921         calculate D2E/DX2 analytically  !
 ! A21   A(2,8,10)             122.82           calculate D2E/DX2 analytically  !
 ! A22   A(6,8,10)             117.6687         calculate D2E/DX2 analytically  !
 ! A23   A(3,9,7)              119.5639         calculate D2E/DX2 analytically  !
 ! A24   A(3,9,11)             122.6084         calculate D2E/DX2 analytically  !
 ! A25   A(7,9,11)             117.8276         calculate D2E/DX2 analytically  !
 ! A26   A(8,10,18)            120.7944         calculate D2E/DX2 analytically  !
 ! A27   A(8,10,22)            121.716          calculate D2E/DX2 analytically  !
 ! A28   A(18,10,22)           117.4631         calculate D2E/DX2 analytically  !
 ! A29   A(9,11,19)            120.4521         calculate D2E/DX2 analytically  !
 ! A30   A(9,11,23)            122.6207         calculate D2E/DX2 analytically  !
 ! A31   A(19,11,23)           116.9064         calculate D2E/DX2 analytically  !
 ! A32   A(16,12,18)           116.7468         calculate D2E/DX2 analytically  !
 ! A33   A(16,12,20)           119.437          calculate D2E/DX2 analytically  !
 ! A34   A(18,12,20)           123.8162         calculate D2E/DX2 analytically  !
 ! A35   A(17,13,19)           116.6342         calculate D2E/DX2 analytically  !
 ! A36   A(17,13,21)           123.0432         calculate D2E/DX2 analytically  !
 ! A37   A(19,13,21)           120.3211         calculate D2E/DX2 analytically  !
 ! A38   A(6,14,26)            110.8418         calculate D2E/DX2 analytically  !
 ! A39   A(6,14,27)            109.5196         calculate D2E/DX2 analytically  !
 ! A40   A(6,14,28)            112.0164         calculate D2E/DX2 analytically  !
 ! A41   A(26,14,27)           109.4516         calculate D2E/DX2 analytically  !
 ! A42   A(26,14,28)           107.4647         calculate D2E/DX2 analytically  !
 ! A43   A(27,14,28)           107.4503         calculate D2E/DX2 analytically  !
 ! A44   A(7,15,29)            110.9854         calculate D2E/DX2 analytically  !
 ! A45   A(7,15,30)            112.0866         calculate D2E/DX2 analytically  !
 ! A46   A(7,15,31)            109.41           calculate D2E/DX2 analytically  !
 ! A47   A(29,15,30)           107.2681         calculate D2E/DX2 analytically  !
 ! A48   A(29,15,31)           109.5898         calculate D2E/DX2 analytically  !
 ! A49   A(30,15,31)           107.4021         calculate D2E/DX2 analytically  !
 ! A50   A(6,16,12)            124.7445         calculate D2E/DX2 analytically  !
 ! A51   A(6,16,42)            118.1198         calculate D2E/DX2 analytically  !
 ! A52   A(12,16,42)           117.1356         calculate D2E/DX2 analytically  !
 ! A53   A(7,17,13)            124.4206         calculate D2E/DX2 analytically  !
 ! A54   A(7,17,43)            117.7886         calculate D2E/DX2 analytically  !
 ! A55   A(13,17,43)           117.7906         calculate D2E/DX2 analytically  !
 ! A56   A(10,18,12)           121.7963         calculate D2E/DX2 analytically  !
 ! A57   A(10,18,44)           117.203          calculate D2E/DX2 analytically  !
 ! A58   A(12,18,44)           121.0008         calculate D2E/DX2 analytically  !
 ! A59   A(11,19,13)           122.1709         calculate D2E/DX2 analytically  !
 ! A60   A(11,19,45)           117.4183         calculate D2E/DX2 analytically  !
 ! A61   A(13,19,45)           120.3999         calculate D2E/DX2 analytically  !
 ! A62   A(12,20,32)           111.9419         calculate D2E/DX2 analytically  !
 ! A63   A(12,20,33)           109.6232         calculate D2E/DX2 analytically  !
 ! A64   A(12,20,34)           109.4607         calculate D2E/DX2 analytically  !
 ! A65   A(32,20,33)           108.4292         calculate D2E/DX2 analytically  !
 ! A66   A(32,20,34)           108.4349         calculate D2E/DX2 analytically  !
 ! A67   A(33,20,34)           108.8921         calculate D2E/DX2 analytically  !
 ! A68   A(13,21,35)           109.683          calculate D2E/DX2 analytically  !
 ! A69   A(13,21,36)           109.1917         calculate D2E/DX2 analytically  !
 ! A70   A(13,21,37)           112.3349         calculate D2E/DX2 analytically  !
 ! A71   A(35,21,36)           108.8976         calculate D2E/DX2 analytically  !
 ! A72   A(35,21,37)           108.3489         calculate D2E/DX2 analytically  !
 ! A73   A(36,21,37)           108.318          calculate D2E/DX2 analytically  !
 ! A74   A(4,22,10)            125.8121         calculate D2E/DX2 analytically  !
 ! A75   A(4,22,46)            117.7322         calculate D2E/DX2 analytically  !
 ! A76   A(10,22,46)           116.4556         calculate D2E/DX2 analytically  !
 ! A77   A(5,23,11)            126.0044         calculate D2E/DX2 analytically  !
 ! A78   A(5,23,47)            118.6486         calculate D2E/DX2 analytically  !
 ! A79   A(11,23,47)           115.3415         calculate D2E/DX2 analytically  !
 ! A80   A(4,24,25)            106.4707         calculate D2E/DX2 analytically  !
 ! A81   A(4,24,38)            109.9866         calculate D2E/DX2 analytically  !
 ! A82   A(4,24,48)            109.8179         calculate D2E/DX2 analytically  !
 ! A83   A(25,24,38)           111.4014         calculate D2E/DX2 analytically  !
 ! A84   A(25,24,48)           109.4746         calculate D2E/DX2 analytically  !
 ! A85   A(38,24,48)           109.638          calculate D2E/DX2 analytically  !
 ! A86   A(5,25,24)            105.5179         calculate D2E/DX2 analytically  !
 ! A87   A(5,25,39)            116.9741         calculate D2E/DX2 analytically  !
 ! A88   A(5,25,49)            105.2305         calculate D2E/DX2 analytically  !
 ! A89   A(24,25,39)           111.8512         calculate D2E/DX2 analytically  !
 ! A90   A(24,25,49)           107.758          calculate D2E/DX2 analytically  !
 ! A91   A(39,25,49)           108.9749         calculate D2E/DX2 analytically  !
 ! A92   A(14,26,50)           109.9571         calculate D2E/DX2 analytically  !
 ! A93   A(14,26,51)           111.4158         calculate D2E/DX2 analytically  !
 ! A94   A(14,26,52)           110.9624         calculate D2E/DX2 analytically  !
 ! A95   A(50,26,51)           108.4898         calculate D2E/DX2 analytically  !
 ! A96   A(50,26,52)           107.4522         calculate D2E/DX2 analytically  !
 ! A97   A(51,26,52)           108.4423         calculate D2E/DX2 analytically  !
 ! A98   A(14,27,53)           110.945          calculate D2E/DX2 analytically  !
 ! A99   A(14,27,54)           111.4529         calculate D2E/DX2 analytically  !
 ! A100  A(14,27,55)           110.3003         calculate D2E/DX2 analytically  !
 ! A101  A(53,27,54)           108.3251         calculate D2E/DX2 analytically  !
 ! A102  A(53,27,55)           107.601          calculate D2E/DX2 analytically  !
 ! A103  A(54,27,55)           108.0832         calculate D2E/DX2 analytically  !
 ! A104  A(14,28,56)           109.254          calculate D2E/DX2 analytically  !
 ! A105  A(14,28,57)           112.2704         calculate D2E/DX2 analytically  !
 ! A106  A(14,28,58)           112.4119         calculate D2E/DX2 analytically  !
 ! A107  A(56,28,57)           107.3718         calculate D2E/DX2 analytically  !
 ! A108  A(56,28,58)           107.3229         calculate D2E/DX2 analytically  !
 ! A109  A(57,28,58)           107.9705         calculate D2E/DX2 analytically  !
 ! A110  A(15,29,59)           109.9156         calculate D2E/DX2 analytically  !
 ! A111  A(15,29,60)           111.6751         calculate D2E/DX2 analytically  !
 ! A112  A(15,29,61)           110.8475         calculate D2E/DX2 analytically  !
 ! A113  A(59,29,60)           108.3199         calculate D2E/DX2 analytically  !
 ! A114  A(59,29,61)           107.3467         calculate D2E/DX2 analytically  !
 ! A115  A(60,29,61)           108.6018         calculate D2E/DX2 analytically  !
 ! A116  A(15,30,62)           109.2687         calculate D2E/DX2 analytically  !
 ! A117  A(15,30,63)           112.2861         calculate D2E/DX2 analytically  !
 ! A118  A(15,30,64)           112.3768         calculate D2E/DX2 analytically  !
 ! A119  A(62,30,63)           107.3549         calculate D2E/DX2 analytically  !
 ! A120  A(62,30,64)           107.3392         calculate D2E/DX2 analytically  !
 ! A121  A(63,30,64)           107.9764         calculate D2E/DX2 analytically  !
 ! A122  A(15,31,65)           110.774          calculate D2E/DX2 analytically  !
 ! A123  A(15,31,66)           111.5565         calculate D2E/DX2 analytically  !
 ! A124  A(15,31,67)           110.286          calculate D2E/DX2 analytically  !
 ! A125  A(65,31,66)           108.3371         calculate D2E/DX2 analytically  !
 ! A126  A(65,31,67)           107.5654         calculate D2E/DX2 analytically  !
 ! A127  A(66,31,67)           108.1908         calculate D2E/DX2 analytically  !
 ! A128  A(20,32,68)           109.8768         calculate D2E/DX2 analytically  !
 ! A129  A(20,32,69)           111.9656         calculate D2E/DX2 analytically  !
 ! A130  A(20,32,70)           111.9675         calculate D2E/DX2 analytically  !
 ! A131  A(68,32,69)           107.4552         calculate D2E/DX2 analytically  !
 ! A132  A(68,32,70)           107.4723         calculate D2E/DX2 analytically  !
 ! A133  A(69,32,70)           107.8953         calculate D2E/DX2 analytically  !
 ! A134  A(20,33,71)           110.5435         calculate D2E/DX2 analytically  !
 ! A135  A(20,33,72)           111.2161         calculate D2E/DX2 analytically  !
 ! A136  A(20,33,73)           111.8635         calculate D2E/DX2 analytically  !
 ! A137  A(71,33,72)           107.7901         calculate D2E/DX2 analytically  !
 ! A138  A(71,33,73)           107.4801         calculate D2E/DX2 analytically  !
 ! A139  A(72,33,73)           107.7676         calculate D2E/DX2 analytically  !
 ! A140  A(20,34,74)           111.8189         calculate D2E/DX2 analytically  !
 ! A141  A(20,34,75)           111.2074         calculate D2E/DX2 analytically  !
 ! A142  A(20,34,76)           110.5779         calculate D2E/DX2 analytically  !
 ! A143  A(74,34,75)           107.7415         calculate D2E/DX2 analytically  !
 ! A144  A(74,34,76)           107.5085         calculate D2E/DX2 analytically  !
 ! A145  A(75,34,76)           107.8085         calculate D2E/DX2 analytically  !
 ! A146  A(21,35,77)           110.5998         calculate D2E/DX2 analytically  !
 ! A147  A(21,35,78)           111.7908         calculate D2E/DX2 analytically  !
 ! A148  A(21,35,79)           111.2099         calculate D2E/DX2 analytically  !
 ! A149  A(77,35,78)           107.5207         calculate D2E/DX2 analytically  !
 ! A150  A(77,35,79)           107.7801         calculate D2E/DX2 analytically  !
 ! A151  A(78,35,79)           107.7616         calculate D2E/DX2 analytically  !
 ! A152  A(21,36,80)           111.1842         calculate D2E/DX2 analytically  !
 ! A153  A(21,36,81)           111.6658         calculate D2E/DX2 analytically  !
 ! A154  A(21,36,82)           110.6828         calculate D2E/DX2 analytically  !
 ! A155  A(80,36,81)           107.6996         calculate D2E/DX2 analytically  !
 ! A156  A(80,36,82)           107.793          calculate D2E/DX2 analytically  !
 ! A157  A(81,36,82)           107.643          calculate D2E/DX2 analytically  !
 ! A158  A(21,37,83)           109.7397         calculate D2E/DX2 analytically  !
 ! A159  A(21,37,84)           112.0579         calculate D2E/DX2 analytically  !
 ! A160  A(21,37,85)           112.0718         calculate D2E/DX2 analytically  !
 ! A161  A(83,37,84)           107.4325         calculate D2E/DX2 analytically  !
 ! A162  A(83,37,85)           107.4006         calculate D2E/DX2 analytically  !
 ! A163  A(84,37,85)           107.9211         calculate D2E/DX2 analytically  !
 ! A164  A(24,38,40)           111.6927         calculate D2E/DX2 analytically  !
 ! A165  A(24,38,86)           108.1791         calculate D2E/DX2 analytically  !
 ! A166  A(24,38,87)           108.9885         calculate D2E/DX2 analytically  !
 ! A167  A(40,38,86)           109.7797         calculate D2E/DX2 analytically  !
 ! A168  A(40,38,87)           111.3926         calculate D2E/DX2 analytically  !
 ! A169  A(86,38,87)           106.6293         calculate D2E/DX2 analytically  !
 ! A170  A(25,39,41)           112.8474         calculate D2E/DX2 analytically  !
 ! A171  A(25,39,88)           106.464          calculate D2E/DX2 analytically  !
 ! A172  A(25,39,89)           110.5384         calculate D2E/DX2 analytically  !
 ! A173  A(41,39,88)           109.1915         calculate D2E/DX2 analytically  !
 ! A174  A(41,39,89)           111.8536         calculate D2E/DX2 analytically  !
 ! A175  A(88,39,89)           105.5292         calculate D2E/DX2 analytically  !
 ! A176  A(38,40,41)           110.8937         calculate D2E/DX2 analytically  !
 ! A177  A(38,40,90)           109.8671         calculate D2E/DX2 analytically  !
 ! A178  A(38,40,91)           109.4545         calculate D2E/DX2 analytically  !
 ! A179  A(41,40,90)           110.6838         calculate D2E/DX2 analytically  !
 ! A180  A(41,40,91)           109.3668         calculate D2E/DX2 analytically  !
 ! A181  A(90,40,91)           106.468          calculate D2E/DX2 analytically  !
 ! A182  A(39,41,40)           110.5451         calculate D2E/DX2 analytically  !
 ! A183  A(39,41,92)           109.7721         calculate D2E/DX2 analytically  !
 ! A184  A(39,41,93)           110.0605         calculate D2E/DX2 analytically  !
 ! A185  A(40,41,92)           110.6864         calculate D2E/DX2 analytically  !
 ! A186  A(40,41,93)           109.3347         calculate D2E/DX2 analytically  !
 ! A187  A(92,41,93)           106.3558         calculate D2E/DX2 analytically  !
 ! A188  L(2,1,5,3,-1)         180.2667         calculate D2E/DX2 analytically  !
 ! A189  L(2,1,5,3,-2)         185.9281         calculate D2E/DX2 analytically  !
 ! D1    D(3,1,2,8)            175.4002         calculate D2E/DX2 analytically  !
 ! D2    D(4,1,2,8)             12.1814         calculate D2E/DX2 analytically  !
 ! D3    D(2,1,3,9)            177.8562         calculate D2E/DX2 analytically  !
 ! D4    D(4,1,3,9)            -96.4067         calculate D2E/DX2 analytically  !
 ! D5    D(5,1,3,9)             -8.072          calculate D2E/DX2 analytically  !
 ! D6    D(2,1,4,22)            -2.7883         calculate D2E/DX2 analytically  !
 ! D7    D(2,1,4,24)           165.72           calculate D2E/DX2 analytically  !
 ! D8    D(3,1,4,22)           -87.6297         calculate D2E/DX2 analytically  !
 ! D9    D(3,1,4,24)            80.8785         calculate D2E/DX2 analytically  !
 ! D10   D(5,1,4,22)          -177.1945         calculate D2E/DX2 analytically  !
 ! D11   D(5,1,4,24)            -8.6863         calculate D2E/DX2 analytically  !
 ! D12   D(3,1,5,23)             6.2611         calculate D2E/DX2 analytically  !
 ! D13   D(3,1,5,25)           178.9978         calculate D2E/DX2 analytically  !
 ! D14   D(4,1,5,23)           169.4047         calculate D2E/DX2 analytically  !
 ! D15   D(4,1,5,25)           -17.8586         calculate D2E/DX2 analytically  !
 ! D16   D(1,2,8,6)            168.6631         calculate D2E/DX2 analytically  !
 ! D17   D(1,2,8,10)           -12.9706         calculate D2E/DX2 analytically  !
 ! D18   D(1,3,9,7)           -174.5623         calculate D2E/DX2 analytically  !
 ! D19   D(1,3,9,11)             5.555          calculate D2E/DX2 analytically  !
 ! D20   D(1,4,22,10)           -5.7327         calculate D2E/DX2 analytically  !
 ! D21   D(1,4,22,46)          174.2379         calculate D2E/DX2 analytically  !
 ! D22   D(24,4,22,10)        -173.6413         calculate D2E/DX2 analytically  !
 ! D23   D(24,4,22,46)           6.3293         calculate D2E/DX2 analytically  !
 ! D24   D(1,4,24,25)           31.64           calculate D2E/DX2 analytically  !
 ! D25   D(1,4,24,38)          -89.186          calculate D2E/DX2 analytically  !
 ! D26   D(1,4,24,48)          150.0703         calculate D2E/DX2 analytically  !
 ! D27   D(22,4,24,25)        -158.8104         calculate D2E/DX2 analytically  !
 ! D28   D(22,4,24,38)          80.3636         calculate D2E/DX2 analytically  !
 ! D29   D(22,4,24,48)         -40.3801         calculate D2E/DX2 analytically  !
 ! D30   D(1,5,23,11)           -2.2775         calculate D2E/DX2 analytically  !
 ! D31   D(1,5,23,47)          176.8282         calculate D2E/DX2 analytically  !
 ! D32   D(25,5,23,11)        -174.3429         calculate D2E/DX2 analytically  !
 ! D33   D(25,5,23,47)           4.7628         calculate D2E/DX2 analytically  !
 ! D34   D(1,5,25,24)           38.5804         calculate D2E/DX2 analytically  !
 ! D35   D(1,5,25,39)          163.6624         calculate D2E/DX2 analytically  !
 ! D36   D(1,5,25,49)          -75.2265         calculate D2E/DX2 analytically  !
 ! D37   D(23,5,25,24)        -148.3396         calculate D2E/DX2 analytically  !
 ! D38   D(23,5,25,39)         -23.2576         calculate D2E/DX2 analytically  !
 ! D39   D(23,5,25,49)          97.8535         calculate D2E/DX2 analytically  !
 ! D40   D(14,6,8,2)            -4.313          calculate D2E/DX2 analytically  !
 ! D41   D(14,6,8,10)          177.2371         calculate D2E/DX2 analytically  !
 ! D42   D(16,6,8,2)           176.7888         calculate D2E/DX2 analytically  !
 ! D43   D(16,6,8,10)           -1.6611         calculate D2E/DX2 analytically  !
 ! D44   D(8,6,14,26)           59.542          calculate D2E/DX2 analytically  !
 ! D45   D(8,6,14,27)          -61.3228         calculate D2E/DX2 analytically  !
 ! D46   D(8,6,14,28)          179.5639         calculate D2E/DX2 analytically  !
 ! D47   D(16,6,14,26)        -121.596          calculate D2E/DX2 analytically  !
 ! D48   D(16,6,14,27)         117.5392         calculate D2E/DX2 analytically  !
 ! D49   D(16,6,14,28)          -1.5741         calculate D2E/DX2 analytically  !
 ! D50   D(8,6,16,12)            0.3235         calculate D2E/DX2 analytically  !
 ! D51   D(8,6,16,42)         -179.7814         calculate D2E/DX2 analytically  !
 ! D52   D(14,6,16,12)        -178.5617         calculate D2E/DX2 analytically  !
 ! D53   D(14,6,16,42)           1.3334         calculate D2E/DX2 analytically  !
 ! D54   D(15,7,9,3)            -3.662          calculate D2E/DX2 analytically  !
 ! D55   D(15,7,9,11)          176.2263         calculate D2E/DX2 analytically  !
 ! D56   D(17,7,9,3)           176.6535         calculate D2E/DX2 analytically  !
 ! D57   D(17,7,9,11)           -3.4582         calculate D2E/DX2 analytically  !
 ! D58   D(9,7,15,29)           59.962          calculate D2E/DX2 analytically  !
 ! D59   D(9,7,15,30)          179.8798         calculate D2E/DX2 analytically  !
 ! D60   D(9,7,15,31)          -61.0953         calculate D2E/DX2 analytically  !
 ! D61   D(17,7,15,29)        -120.3633         calculate D2E/DX2 analytically  !
 ! D62   D(17,7,15,30)          -0.4455         calculate D2E/DX2 analytically  !
 ! D63   D(17,7,15,31)         118.5795         calculate D2E/DX2 analytically  !
 ! D64   D(9,7,17,13)            1.3084         calculate D2E/DX2 analytically  !
 ! D65   D(9,7,17,43)         -178.5522         calculate D2E/DX2 analytically  !
 ! D66   D(15,7,17,13)        -178.3721         calculate D2E/DX2 analytically  !
 ! D67   D(15,7,17,43)           1.7673         calculate D2E/DX2 analytically  !
 ! D68   D(2,8,10,18)         -176.3344         calculate D2E/DX2 analytically  !
 ! D69   D(2,8,10,22)            1.7445         calculate D2E/DX2 analytically  !
 ! D70   D(6,8,10,18)            2.06           calculate D2E/DX2 analytically  !
 ! D71   D(6,8,10,22)         -179.861          calculate D2E/DX2 analytically  !
 ! D72   D(3,9,11,19)         -177.114          calculate D2E/DX2 analytically  !
 ! D73   D(3,9,11,23)            1.176          calculate D2E/DX2 analytically  !
 ! D74   D(7,9,11,19)            3.0014         calculate D2E/DX2 analytically  !
 ! D75   D(7,9,11,23)         -178.7087         calculate D2E/DX2 analytically  !
 ! D76   D(8,10,18,12)          -1.0907         calculate D2E/DX2 analytically  !
 ! D77   D(8,10,18,44)         178.9303         calculate D2E/DX2 analytically  !
 ! D78   D(22,10,18,12)       -179.249          calculate D2E/DX2 analytically  !
 ! D79   D(22,10,18,44)          0.772          calculate D2E/DX2 analytically  !
 ! D80   D(8,10,22,4)            7.9747         calculate D2E/DX2 analytically  !
 ! D81   D(8,10,22,46)        -171.9963         calculate D2E/DX2 analytically  !
 ! D82   D(18,10,22,4)        -173.8851         calculate D2E/DX2 analytically  !
 ! D83   D(18,10,22,46)          6.1439         calculate D2E/DX2 analytically  !
 ! D84   D(9,11,19,13)          -0.2408         calculate D2E/DX2 analytically  !
 ! D85   D(9,11,19,45)         178.5616         calculate D2E/DX2 analytically  !
 ! D86   D(23,11,19,13)       -178.6257         calculate D2E/DX2 analytically  !
 ! D87   D(23,11,19,45)          0.1767         calculate D2E/DX2 analytically  !
 ! D88   D(9,11,23,5)           -2.886          calculate D2E/DX2 analytically  !
 ! D89   D(9,11,23,47)         177.9824         calculate D2E/DX2 analytically  !
 ! D90   D(19,11,23,5)         175.4609         calculate D2E/DX2 analytically  !
 ! D91   D(19,11,23,47)         -3.6707         calculate D2E/DX2 analytically  !
 ! D92   D(18,12,16,6)           0.6827         calculate D2E/DX2 analytically  !
 ! D93   D(18,12,16,42)       -179.2134         calculate D2E/DX2 analytically  !
 ! D94   D(20,12,16,6)        -179.355          calculate D2E/DX2 analytically  !
 ! D95   D(20,12,16,42)          0.7489         calculate D2E/DX2 analytically  !
 ! D96   D(16,12,18,10)         -0.2913         calculate D2E/DX2 analytically  !
 ! D97   D(16,12,18,44)        179.687          calculate D2E/DX2 analytically  !
 ! D98   D(20,12,18,10)        179.7482         calculate D2E/DX2 analytically  !
 ! D99   D(20,12,18,44)         -0.2735         calculate D2E/DX2 analytically  !
 ! D100  D(16,12,20,32)       -179.5743         calculate D2E/DX2 analytically  !
 ! D101  D(16,12,20,33)        -59.2119         calculate D2E/DX2 analytically  !
 ! D102  D(16,12,20,34)         60.1657         calculate D2E/DX2 analytically  !
 ! D103  D(18,12,20,32)          0.3852         calculate D2E/DX2 analytically  !
 ! D104  D(18,12,20,33)        120.7475         calculate D2E/DX2 analytically  !
 ! D105  D(18,12,20,34)       -119.8748         calculate D2E/DX2 analytically  !
 ! D106  D(19,13,17,7)           1.4389         calculate D2E/DX2 analytically  !
 ! D107  D(19,13,17,43)       -178.7005         calculate D2E/DX2 analytically  !
 ! D108  D(21,13,17,7)        -178.1121         calculate D2E/DX2 analytically  !
 ! D109  D(21,13,17,43)          1.7485         calculate D2E/DX2 analytically  !
 ! D110  D(17,13,19,11)         -1.9635         calculate D2E/DX2 analytically  !
 ! D111  D(17,13,19,45)        179.2689         calculate D2E/DX2 analytically  !
 ! D112  D(21,13,19,11)        177.6004         calculate D2E/DX2 analytically  !
 ! D113  D(21,13,19,45)         -1.1671         calculate D2E/DX2 analytically  !
 ! D114  D(17,13,21,35)       -122.2056         calculate D2E/DX2 analytically  !
 ! D115  D(17,13,21,36)        118.5372         calculate D2E/DX2 analytically  !
 ! D116  D(17,13,21,37)         -1.647          calculate D2E/DX2 analytically  !
 ! D117  D(19,13,21,35)         58.2593         calculate D2E/DX2 analytically  !
 ! D118  D(19,13,21,36)        -60.9979         calculate D2E/DX2 analytically  !
 ! D119  D(19,13,21,37)        178.8179         calculate D2E/DX2 analytically  !
 ! D120  D(6,14,26,50)         177.8073         calculate D2E/DX2 analytically  !
 ! D121  D(6,14,26,51)         -61.8718         calculate D2E/DX2 analytically  !
 ! D122  D(6,14,26,52)          59.0695         calculate D2E/DX2 analytically  !
 ! D123  D(27,14,26,50)        -61.2877         calculate D2E/DX2 analytically  !
 ! D124  D(27,14,26,51)         59.0333         calculate D2E/DX2 analytically  !
 ! D125  D(27,14,26,52)        179.9745         calculate D2E/DX2 analytically  !
 ! D126  D(28,14,26,50)         55.1046         calculate D2E/DX2 analytically  !
 ! D127  D(28,14,26,51)        175.4256         calculate D2E/DX2 analytically  !
 ! D128  D(28,14,26,52)        -63.6332         calculate D2E/DX2 analytically  !
 ! D129  D(6,14,27,53)         -60.0756         calculate D2E/DX2 analytically  !
 ! D130  D(6,14,27,54)          60.7299         calculate D2E/DX2 analytically  !
 ! D131  D(6,14,27,55)        -179.2069         calculate D2E/DX2 analytically  !
 ! D132  D(26,14,27,53)        178.2203         calculate D2E/DX2 analytically  !
 ! D133  D(26,14,27,54)        -60.9742         calculate D2E/DX2 analytically  !
 ! D134  D(26,14,27,55)         59.0889         calculate D2E/DX2 analytically  !
 ! D135  D(28,14,27,53)         61.8189         calculate D2E/DX2 analytically  !
 ! D136  D(28,14,27,54)       -177.3756         calculate D2E/DX2 analytically  !
 ! D137  D(28,14,27,55)        -57.3125         calculate D2E/DX2 analytically  !
 ! D138  D(6,14,28,56)         179.8548         calculate D2E/DX2 analytically  !
 ! D139  D(6,14,28,57)         -61.1459         calculate D2E/DX2 analytically  !
 ! D140  D(6,14,28,58)          60.8279         calculate D2E/DX2 analytically  !
 ! D141  D(26,14,28,56)        -58.1707         calculate D2E/DX2 analytically  !
 ! D142  D(26,14,28,57)         60.8285         calculate D2E/DX2 analytically  !
 ! D143  D(26,14,28,58)       -177.1976         calculate D2E/DX2 analytically  !
 ! D144  D(27,14,28,56)         59.5295         calculate D2E/DX2 analytically  !
 ! D145  D(27,14,28,57)        178.5288         calculate D2E/DX2 analytically  !
 ! D146  D(27,14,28,58)        -59.4974         calculate D2E/DX2 analytically  !
 ! D147  D(7,15,29,59)         179.5191         calculate D2E/DX2 analytically  !
 ! D148  D(7,15,29,60)         -60.2326         calculate D2E/DX2 analytically  !
 ! D149  D(7,15,29,61)          61.0097         calculate D2E/DX2 analytically  !
 ! D150  D(30,15,29,59)         56.7698         calculate D2E/DX2 analytically  !
 ! D151  D(30,15,29,60)        177.0182         calculate D2E/DX2 analytically  !
 ! D152  D(30,15,29,61)        -61.7396         calculate D2E/DX2 analytically  !
 ! D153  D(31,15,29,59)        -59.5297         calculate D2E/DX2 analytically  !
 ! D154  D(31,15,29,60)         60.7186         calculate D2E/DX2 analytically  !
 ! D155  D(31,15,29,61)       -178.0391         calculate D2E/DX2 analytically  !
 ! D156  D(7,15,30,62)         179.4099         calculate D2E/DX2 analytically  !
 ! D157  D(7,15,30,63)         -61.5923         calculate D2E/DX2 analytically  !
 ! D158  D(7,15,30,64)          60.3748         calculate D2E/DX2 analytically  !
 ! D159  D(29,15,30,62)        -58.5255         calculate D2E/DX2 analytically  !
 ! D160  D(29,15,30,63)         60.4723         calculate D2E/DX2 analytically  !
 ! D161  D(29,15,30,64)       -177.5606         calculate D2E/DX2 analytically  !
 ! D162  D(31,15,30,62)         59.2093         calculate D2E/DX2 analytically  !
 ! D163  D(31,15,30,63)        178.2071         calculate D2E/DX2 analytically  !
 ! D164  D(31,15,30,64)        -59.8258         calculate D2E/DX2 analytically  !
 ! D165  D(7,15,31,65)         -61.5552         calculate D2E/DX2 analytically  !
 ! D166  D(7,15,31,66)          59.2184         calculate D2E/DX2 analytically  !
 ! D167  D(7,15,31,67)         179.4754         calculate D2E/DX2 analytically  !
 ! D168  D(29,15,31,65)        176.545          calculate D2E/DX2 analytically  !
 ! D169  D(29,15,31,66)        -62.6814         calculate D2E/DX2 analytically  !
 ! D170  D(29,15,31,67)         57.5756         calculate D2E/DX2 analytically  !
 ! D171  D(30,15,31,65)         60.3303         calculate D2E/DX2 analytically  !
 ! D172  D(30,15,31,66)       -178.8961         calculate D2E/DX2 analytically  !
 ! D173  D(30,15,31,67)        -58.6391         calculate D2E/DX2 analytically  !
 ! D174  D(12,20,32,68)        179.992          calculate D2E/DX2 analytically  !
 ! D175  D(12,20,32,69)        -60.6842         calculate D2E/DX2 analytically  !
 ! D176  D(12,20,32,70)         60.6453         calculate D2E/DX2 analytically  !
 ! D177  D(33,20,32,68)         58.9364         calculate D2E/DX2 analytically  !
 ! D178  D(33,20,32,69)        178.2603         calculate D2E/DX2 analytically  !
 ! D179  D(33,20,32,70)        -60.4102         calculate D2E/DX2 analytically  !
 ! D180  D(34,20,32,68)        -59.1515         calculate D2E/DX2 analytically  !
 ! D181  D(34,20,32,69)         60.1723         calculate D2E/DX2 analytically  !
 ! D182  D(34,20,32,70)       -178.4981         calculate D2E/DX2 analytically  !
 ! D183  D(12,20,33,71)        179.5072         calculate D2E/DX2 analytically  !
 ! D184  D(12,20,33,72)        -60.7914         calculate D2E/DX2 analytically  !
 ! D185  D(12,20,33,73)         59.7712         calculate D2E/DX2 analytically  !
 ! D186  D(32,20,33,71)        -58.016          calculate D2E/DX2 analytically  !
 ! D187  D(32,20,33,72)         61.6854         calculate D2E/DX2 analytically  !
 ! D188  D(32,20,33,73)       -177.752          calculate D2E/DX2 analytically  !
 ! D189  D(34,20,33,71)         59.7808         calculate D2E/DX2 analytically  !
 ! D190  D(34,20,33,72)        179.4822         calculate D2E/DX2 analytically  !
 ! D191  D(34,20,33,73)        -59.9552         calculate D2E/DX2 analytically  !
 ! D192  D(12,20,34,74)        -59.6533         calculate D2E/DX2 analytically  !
 ! D193  D(12,20,34,75)         60.8393         calculate D2E/DX2 analytically  !
 ! D194  D(12,20,34,76)       -179.4191         calculate D2E/DX2 analytically  !
 ! D195  D(32,20,34,74)        177.967          calculate D2E/DX2 analytically  !
 ! D196  D(32,20,34,75)        -61.5404         calculate D2E/DX2 analytically  !
 ! D197  D(32,20,34,76)         58.2012         calculate D2E/DX2 analytically  !
 ! D198  D(33,20,34,74)         60.1739         calculate D2E/DX2 analytically  !
 ! D199  D(33,20,34,75)       -179.3335         calculate D2E/DX2 analytically  !
 ! D200  D(33,20,34,76)        -59.5919         calculate D2E/DX2 analytically  !
 ! D201  D(13,21,35,77)       -179.3869         calculate D2E/DX2 analytically  !
 ! D202  D(13,21,35,78)        -59.6096         calculate D2E/DX2 analytically  !
 ! D203  D(13,21,35,79)         60.8911         calculate D2E/DX2 analytically  !
 ! D204  D(36,21,35,77)        -59.9492         calculate D2E/DX2 analytically  !
 ! D205  D(36,21,35,78)         59.8282         calculate D2E/DX2 analytically  !
 ! D206  D(36,21,35,79)       -179.6712         calculate D2E/DX2 analytically  !
 ! D207  D(37,21,35,77)         57.666          calculate D2E/DX2 analytically  !
 ! D208  D(37,21,35,78)        177.4434         calculate D2E/DX2 analytically  !
 ! D209  D(37,21,35,79)        -62.056          calculate D2E/DX2 analytically  !
 ! D210  D(13,21,36,80)        -60.869          calculate D2E/DX2 analytically  !
 ! D211  D(13,21,36,81)         59.4495         calculate D2E/DX2 analytically  !
 ! D212  D(13,21,36,82)        179.3546         calculate D2E/DX2 analytically  !
 ! D213  D(35,21,36,80)        179.3879         calculate D2E/DX2 analytically  !
 ! D214  D(35,21,36,81)        -60.2936         calculate D2E/DX2 analytically  !
 ! D215  D(35,21,36,82)         59.6116         calculate D2E/DX2 analytically  !
 ! D216  D(37,21,36,80)         61.7532         calculate D2E/DX2 analytically  !
 ! D217  D(37,21,36,81)       -177.9283         calculate D2E/DX2 analytically  !
 ! D218  D(37,21,36,82)        -58.0231         calculate D2E/DX2 analytically  !
 ! D219  D(13,21,37,83)       -179.9005         calculate D2E/DX2 analytically  !
 ! D220  D(13,21,37,84)        -60.6373         calculate D2E/DX2 analytically  !
 ! D221  D(13,21,37,85)         60.8673         calculate D2E/DX2 analytically  !
 ! D222  D(35,21,37,83)        -58.5748         calculate D2E/DX2 analytically  !
 ! D223  D(35,21,37,84)         60.6884         calculate D2E/DX2 analytically  !
 ! D224  D(35,21,37,85)       -177.807          calculate D2E/DX2 analytically  !
 ! D225  D(36,21,37,83)         59.4105         calculate D2E/DX2 analytically  !
 ! D226  D(36,21,37,84)        178.6737         calculate D2E/DX2 analytically  !
 ! D227  D(36,21,37,85)        -59.8217         calculate D2E/DX2 analytically  !
 ! D228  D(4,24,25,5)          -43.6057         calculate D2E/DX2 analytically  !
 ! D229  D(4,24,25,39)        -171.8147         calculate D2E/DX2 analytically  !
 ! D230  D(4,24,25,49)          68.4313         calculate D2E/DX2 analytically  !
 ! D231  D(38,24,25,5)          76.3083         calculate D2E/DX2 analytically  !
 ! D232  D(38,24,25,39)        -51.9008         calculate D2E/DX2 analytically  !
 ! D233  D(38,24,25,49)       -171.6547         calculate D2E/DX2 analytically  !
 ! D234  D(48,24,25,5)        -162.2613         calculate D2E/DX2 analytically  !
 ! D235  D(48,24,25,39)         69.5296         calculate D2E/DX2 analytically  !
 ! D236  D(48,24,25,49)        -50.2243         calculate D2E/DX2 analytically  !
 ! D237  D(4,24,38,40)         172.3387         calculate D2E/DX2 analytically  !
 ! D238  D(4,24,38,86)          51.4108         calculate D2E/DX2 analytically  !
 ! D239  D(4,24,38,87)         -64.1548         calculate D2E/DX2 analytically  !
 ! D240  D(25,24,38,40)         54.5259         calculate D2E/DX2 analytically  !
 ! D241  D(25,24,38,86)        -66.402          calculate D2E/DX2 analytically  !
 ! D242  D(25,24,38,87)        178.0324         calculate D2E/DX2 analytically  !
 ! D243  D(48,24,38,40)        -66.8094         calculate D2E/DX2 analytically  !
 ! D244  D(48,24,38,86)        172.2627         calculate D2E/DX2 analytically  !
 ! D245  D(48,24,38,87)         56.6971         calculate D2E/DX2 analytically  !
 ! D246  D(5,25,39,41)         -69.1631         calculate D2E/DX2 analytically  !
 ! D247  D(5,25,39,88)         171.0694         calculate D2E/DX2 analytically  !
 ! D248  D(5,25,39,89)          56.9371         calculate D2E/DX2 analytically  !
 ! D249  D(24,25,39,41)         52.6758         calculate D2E/DX2 analytically  !
 ! D250  D(24,25,39,88)        -67.0918         calculate D2E/DX2 analytically  !
 ! D251  D(24,25,39,89)        178.7759         calculate D2E/DX2 analytically  !
 ! D252  D(49,25,39,41)        171.7125         calculate D2E/DX2 analytically  !
 ! D253  D(49,25,39,88)         51.9449         calculate D2E/DX2 analytically  !
 ! D254  D(49,25,39,89)        -62.1874         calculate D2E/DX2 analytically  !
 ! D255  D(24,38,40,41)        -56.9328         calculate D2E/DX2 analytically  !
 ! D256  D(24,38,40,90)       -179.6121         calculate D2E/DX2 analytically  !
 ! D257  D(24,38,40,91)         63.8168         calculate D2E/DX2 analytically  !
 ! D258  D(86,38,40,41)         63.059          calculate D2E/DX2 analytically  !
 ! D259  D(86,38,40,90)        -59.6202         calculate D2E/DX2 analytically  !
 ! D260  D(86,38,40,91)       -176.1913         calculate D2E/DX2 analytically  !
 ! D261  D(87,38,40,41)       -179.0685         calculate D2E/DX2 analytically  !
 ! D262  D(87,38,40,90)         58.2523         calculate D2E/DX2 analytically  !
 ! D263  D(87,38,40,91)        -58.3188         calculate D2E/DX2 analytically  !
 ! D264  D(25,39,41,40)        -54.6298         calculate D2E/DX2 analytically  !
 ! D265  D(25,39,41,92)       -177.0147         calculate D2E/DX2 analytically  !
 ! D266  D(25,39,41,93)         66.252          calculate D2E/DX2 analytically  !
 ! D267  D(88,39,41,40)         63.5535         calculate D2E/DX2 analytically  !
 ! D268  D(88,39,41,92)        -58.8315         calculate D2E/DX2 analytically  !
 ! D269  D(88,39,41,93)       -175.5647         calculate D2E/DX2 analytically  !
 ! D270  D(89,39,41,40)        179.9786         calculate D2E/DX2 analytically  !
 ! D271  D(89,39,41,92)         57.5937         calculate D2E/DX2 analytically  !
 ! D272  D(89,39,41,93)        -59.1395         calculate D2E/DX2 analytically  !
 ! D273  D(38,40,41,39)         56.2749         calculate D2E/DX2 analytically  !
 ! D274  D(38,40,41,92)        178.123          calculate D2E/DX2 analytically  !
 ! D275  D(38,40,41,93)        -65.0378         calculate D2E/DX2 analytically  !
 ! D276  D(90,40,41,39)        178.4795         calculate D2E/DX2 analytically  !
 ! D277  D(90,40,41,92)        -59.6724         calculate D2E/DX2 analytically  !
 ! D278  D(90,40,41,93)         57.1669         calculate D2E/DX2 analytically  !
 ! D279  D(91,40,41,39)        -64.5267         calculate D2E/DX2 analytically  !
 ! D280  D(91,40,41,92)         57.3215         calculate D2E/DX2 analytically  !
 ! D281  D(91,40,41,93)        174.1607         calculate D2E/DX2 analytically  !
 --------------------------------------------------------------------------------
 Trust Radius=3.00D-01 FncErr=5.00D-06 GrdErr=5.00D-06 EigMax=2.50D+02 EigMin=1.00D-04
 Number of steps in this run=    558 maximum allowed number of steps=    558.
 GradGradGradGradGradGradGradGradGradGradGradGradGradGradGradGradGradGrad

 Symmetry turned off by external request.
 Stoichiometry    C36H52CoN2O2(1-)
 Framework group  C1[X(C36H52CoN2O2)]
 Deg. of freedom   273
 Full point group                 C1      NOp   1
                          Input orientation:                          
 ---------------------------------------------------------------------
 Center     Atomic      Atomic             Coordinates (Angstroms)
 Number     Number       Type             X           Y           Z
 ---------------------------------------------------------------------
      1         27           0        0.061930    0.375994   -1.425974
      2          8           0        1.276145   -1.087858   -1.625511
      3          8           0       -1.307605   -0.935472   -1.323408
      4          7           0        1.331966    1.617944   -2.069025
      5          7           0       -1.142255    1.823859   -1.423702
      6          6           0        3.323333   -2.265824   -1.725739
      7          6           0       -3.435880   -1.895874   -0.970217
      8          6           0        2.552413   -1.057425   -1.852113
      9          6           0       -2.579320   -0.757902   -1.132087
     10          6           0        3.240024    0.130345   -2.261146
     11          6           0       -3.177395    0.542476   -1.076548
     12          6           0        5.357669   -1.060148   -2.472534
     13          6           0       -5.375423   -0.403361   -0.591009
     14          6           0        2.662256   -3.557459   -1.231370
     15          6           0       -2.868650   -3.314149   -1.106081
     16          6           0        4.671175   -2.218341   -2.039227
     17          6           0       -4.780829   -1.676958   -0.696452
     18          6           0        4.618715    0.097991   -2.570978
     19          6           0       -4.551406    0.684768   -0.806596
     20          6           0        6.846892   -1.148827   -2.800614
     21          6           0       -6.852355   -0.197863   -0.246766
     22          6           0        2.560733    1.376583   -2.411213
     23          6           0       -2.424079    1.745905   -1.251945
     24          6           0        0.738356    2.916769   -2.420819
     25          6           0       -0.440275    3.124737   -1.473481
     26          6           0        1.508880   -3.970743   -2.158485
     27          6           0        2.123834   -3.346324    0.192446
     28          6           0        3.650485   -4.724127   -1.179828
     29          6           0       -1.762444   -3.566212   -0.069256
     30          6           0       -3.940738   -4.385049   -0.895778
     31          6           0       -2.301032   -3.503766   -2.521610
     32          6           0        7.415677    0.198634   -3.239774
     33          6           0        7.620233   -1.621472   -1.562146
     34          6           0        7.061113   -2.159279   -3.935811
     35          6           0       -7.536890    0.601054   -1.363383
     36          6           0       -6.959564    0.590455    1.066091
     37          6           0       -7.597930   -1.520273   -0.075051
     38          6           0        0.285084    2.905951   -3.881731
     39          6           0       -1.269166    4.342556   -1.858911
     40          6           0       -0.502288    4.159896   -4.235933
     41          6           0       -1.707358    4.322208   -3.317953
     42          1           0        5.250291   -3.131480   -1.946811
     43          1           0       -5.414256   -2.543403   -0.552296
     44          1           0        5.077627    1.029045   -2.892111
     45          1           0       -4.949516    1.696740   -0.752171
     46          1           0        3.136124    2.195443   -2.856076
     47          1           0       -3.005400    2.670095   -1.220651
     48          1           0        1.475461    3.716278   -2.269070
     49          1           0       -0.035963    3.273174   -0.463441
     50          1           0        1.072388   -4.915138   -1.814325
     51          1           0        0.724451   -3.214680   -2.179018
     52          1           0        1.865973   -4.127626   -3.182404
     53          1           0        2.932945   -3.080963    0.881771
     54          1           0        1.374345   -2.554296    0.222191
     55          1           0        1.660487   -4.267232    0.564159
     56          1           0        3.133804   -5.619033   -0.819912
     57          1           0        4.065416   -4.960249   -2.165067
     58          1           0        4.485726   -4.533776   -0.498407
     59          1           0       -1.375878   -4.586281   -0.176211
     60          1           0       -0.931285   -2.870215   -0.189644
     61          1           0       -2.153945   -3.470303    0.949969
     62          1           0       -3.489897   -5.375292   -1.012936
     63          1           0       -4.379199   -4.342371    0.106403
     64          1           0       -4.754354   -4.308815   -1.623995
     65          1           0       -3.088281   -3.388603   -3.274536
     66          1           0       -1.512080   -2.782196   -2.736964
     67          1           0       -1.882997   -4.510726   -2.631579
     68          1           0        8.481446    0.096752   -3.465685
     69          1           0        6.923592    0.576454   -4.141476
     70          1           0        7.316519    0.959045   -2.458803
     71          1           0        8.690079   -1.698817   -1.783451
     72          1           0        7.500728   -0.921040   -0.729258
     73          1           0        7.283040   -2.605127   -1.222136
     74          1           0        6.704104   -3.157271   -3.664631
     75          1           0        6.533599   -1.851766   -4.844523
     76          1           0        8.125554   -2.244954   -4.179152
     77          1           0       -8.593495    0.766316   -1.126869
     78          1           0       -7.073484    1.581945   -1.503574
     79          1           0       -7.487455    0.068712   -2.318765
     80          1           0       -6.490704    0.047203    1.893301
     81          1           0       -6.472716    1.567687    0.991472
     82          1           0       -8.008916    0.761574    1.330071
     83          1           0       -8.646774   -1.324392    0.167649
     84          1           0       -7.579803   -2.123937   -0.987945
     85          1           0       -7.181506   -2.124781    0.736763
     86          1           0       -0.341042    2.016497   -4.039945
     87          1           0        1.162670    2.790054   -4.526196
     88          1           0       -0.632901    5.219174   -1.685683
     89          1           0       -2.119393    4.458846   -1.179821
     90          1           0       -0.817035    4.117978   -5.283262
     91          1           0        0.148792    5.039641   -4.141396
     92          1           0       -2.251923    5.241687   -3.553795
     93          1           0       -2.408645    3.495029   -3.489032
 ---------------------------------------------------------------------
 Rotational constants (GHZ):           0.1309108           0.0481986           0.0371597
 General basis read from cards:  (5D, 7F)
 ======================================================================================================
                                       Pseudopotential Parameters
 ======================================================================================================
  Center     Atomic      Valence      Angular      Power
  Number     Number     Electrons     Momentum     of R      Exponent        Coefficient   SO-Coeffient
 ======================================================================================================
    1         27           17
                                      F and up 
                                                     2        1.0000000        0.00000000    0.00000000
                                      S - F
                                                     2       23.6600000      283.96056600    0.00000000
                                                     2       10.6100000       47.15684600    0.00000000
                                      P - F
                                                     2       25.0400000      182.21223600    0.00000000
                                                     2       10.4400000       35.23335200    0.00000000
                                      D - F
                                                     2       29.5400000      -26.47533300    0.00000000
                                                     2       10.1800000       -1.82578700    0.00000000
    2          8
                                   No pseudopotential on this center.
    3          8
                                   No pseudopotential on this center.
    4          7
                                   No pseudopotential on this center.
    5          7
                                   No pseudopotential on this center.
    6          6
                                   No pseudopotential on this center.
    7          6
                                   No pseudopotential on this center.
    8          6
                                   No pseudopotential on this center.
    9          6
                                   No pseudopotential on this center.
   10          6
                                   No pseudopotential on this center.
   11          6
                                   No pseudopotential on this center.
   12          6
                                   No pseudopotential on this center.
   13          6
                                   No pseudopotential on this center.
   14          6
                                   No pseudopotential on this center.
   15          6
                                   No pseudopotential on this center.
   16          6
                                   No pseudopotential on this center.
   17          6
                                   No pseudopotential on this center.
   18          6
                                   No pseudopotential on this center.
   19          6
                                   No pseudopotential on this center.
   20          6
                                   No pseudopotential on this center.
   21          6
                                   No pseudopotential on this center.
   22          6
                                   No pseudopotential on this center.
   23          6
                                   No pseudopotential on this center.
   24          6
                                   No pseudopotential on this center.
   25          6
                                   No pseudopotential on this center.
   26          6
                                   No pseudopotential on this center.
   27          6
                                   No pseudopotential on this center.
   28          6
                                   No pseudopotential on this center.
   29          6
                                   No pseudopotential on this center.
   30          6
                                   No pseudopotential on this center.
   31          6
                                   No pseudopotential on this center.
   32          6
                                   No pseudopotential on this center.
   33          6
                                   No pseudopotential on this center.
   34          6
                                   No pseudopotential on this center.
   35          6
                                   No pseudopotential on this center.
   36          6
                                   No pseudopotential on this center.
   37          6
                                   No pseudopotential on this center.
   38          6
                                   No pseudopotential on this center.
   39          6
                                   No pseudopotential on this center.
   40          6
                                   No pseudopotential on this center.
   41          6
                                   No pseudopotential on this center.
   42          1
                                   No pseudopotential on this center.
   43          1
                                   No pseudopotential on this center.
   44          1
                                   No pseudopotential on this center.
   45          1
                                   No pseudopotential on this center.
   46          1
                                   No pseudopotential on this center.
   47          1
                                   No pseudopotential on this center.
   48          1
                                   No pseudopotential on this center.
   49          1
                                   No pseudopotential on this center.
   50          1
                                   No pseudopotential on this center.
   51          1
                                   No pseudopotential on this center.
   52          1
                                   No pseudopotential on this center.
   53          1
                                   No pseudopotential on this center.
   54          1
                                   No pseudopotential on this center.
   55          1
                                   No pseudopotential on this center.
   56          1
                                   No pseudopotential on this center.
   57          1
                                   No pseudopotential on this center.
   58          1
                                   No pseudopotential on this center.
   59          1
                                   No pseudopotential on this center.
   60          1
                                   No pseudopotential on this center.
   61          1
                                   No pseudopotential on this center.
   62          1
                                   No pseudopotential on this center.
   63          1
                                   No pseudopotential on this center.
   64          1
                                   No pseudopotential on this center.
   65          1
                                   No pseudopotential on this center.
   66          1
                                   No pseudopotential on this center.
   67          1
                                   No pseudopotential on this center.
   68          1
                                   No pseudopotential on this center.
   69          1
                                   No pseudopotential on this center.
   70          1
                                   No pseudopotential on this center.
   71          1
                                   No pseudopotential on this center.
   72          1
                                   No pseudopotential on this center.
   73          1
                                   No pseudopotential on this center.
   74          1
                                   No pseudopotential on this center.
   75          1
                                   No pseudopotential on this center.
   76          1
                                   No pseudopotential on this center.
   77          1
                                   No pseudopotential on this center.
   78          1
                                   No pseudopotential on this center.
   79          1
                                   No pseudopotential on this center.
   80          1
                                   No pseudopotential on this center.
   81          1
                                   No pseudopotential on this center.
   82          1
                                   No pseudopotential on this center.
   83          1
                                   No pseudopotential on this center.
   84          1
                                   No pseudopotential on this center.
   85          1
                                   No pseudopotential on this center.
   86          1
                                   No pseudopotential on this center.
   87          1
                                   No pseudopotential on this center.
   88          1
                                   No pseudopotential on this center.
   89          1
                                   No pseudopotential on this center.
   90          1
                                   No pseudopotential on this center.
   91          1
                                   No pseudopotential on this center.
   92          1
                                   No pseudopotential on this center.
   93          1
                                   No pseudopotential on this center.
 ======================================================================================================
  1287 basis functions,  1983 primitive gaussians,  1333 cartesian basis functions
   158 alpha electrons      158 beta electrons
       nuclear repulsion energy      5397.2217612836 Hartrees.
 NAtoms=   93 NActive=   93 NUniq=   93 SFac= 1.00D+00 NAtFMM=   60 NAOKFM=T Big=T
 Integral buffers will be    131072 words long.
 Raffenetti 2 integral format.
 Two-electron integral symmetry is turned off.
 Standard density basis: Auto (5D, 7F)
  5934 Density fitting functions
 Force inversion solution in PCM.
 ------------------------------------------------------------------------------
 Polarizable Continuum Model (PCM)
 =================================
 Model                : PCM.
 Atomic radii         : SMD-Coulomb.
 Polarization charges : Total charges.
 Charge compensation  : None.
 Solution method      : Matrix inversion.
 Cavity type          : VdW (van der Waals Surface) (Alpha=1.000).
 Cavity algorithm     : GePol (No added spheres)
                        Default sphere list used, NSphG=   93.
                        Lebedev-Laikov grids with approx.  5.0 points / Ang**2.
                        Smoothing algorithm: York/Karplus (Gamma=1.0000).
                        Polarization charges: spherical gaussians, with
                                              point-specific exponents (IZeta= 3).
                        Self-potential: point-specific (ISelfS= 7).
                        Self-field    : sphere-specific E.n sum rule (ISelfD= 2).
 1st derivatives      : Analytical E(r).r(x)/FMM algorithm (CHGder, D1EAlg=3).
                        Cavity 1st derivative terms included.
 2nd derivatives      : Analytical E(r).r(xy)/FMM algorithm (CHGder, D2EAlg=3).
                        Cavity 2nd derivative terms included.
 Solvent              : n,n-DiMethylFormamide, Eps=  37.219000 Eps(inf)=   2.046330
 ------------------------------------------------------------------------------
 ------------------------------------------------------------------------------
 Atomic radii for non-electrostatic terms: SMD-CDS.
 ------------------------------------------------------------------------------
 Nuclear repulsion after PCM non-electrostatic terms =     5397.2149551502 Hartrees.
 One-electron integrals computed using PRISM.
   1 Symmetry operations used in ECPInt.
 ECPInt:  NShTT=  132870 NPrTT=  411758 LenC2=  103990 LenP2D=  215759.
 LDataN:  DoStor=T MaxTD1= 6 Len=  172
 Number of processors reduced to  53 by ecpmxn.
 NBasis=  1287 RedAO= T EigKep=  1.03D-06  NBF=  1287
 NBsUse=  1271 1.00D-06 EigRej=  8.30D-07 NBFU=  1271
 NBasis=     1287 NBas6D=     1333 NTT=      828828   NTT6D=   889111
 NDBShl=      968 NDBF=       5934 NDBF6D=     6973  NNucDB=        0
 IDenFi=        2 ISolve=        0 FullAP=F BlkAPC=T NucTyp=        0
 TolInv= 1.00D-06 TolIt=  1.00D-10 IR12=0.
 FoFCou: FMM=F IPFlag=           0 FMFlag=           0 FMFlg1=           0
         NFxFlg=           0 DoJE=F BraDBF=T KetDBF=T FulRan=T
         wScrn=  0.000000 ICntrl=       600 IOpCl=  3 I1Cent=           6 NGrid=           0
         NMat0=    1 NMatS0=   6973 NMatT0=    0 NMatD0=    1 NMtDS0=    0 NMtDT0=    0
 Symmetry not used in FoFCou.
 DBF EigKep=  1.00D-06 EigRej=  9.86D-07
 NDBF=   5934  NBFD=  5934
 NRank=  5518 NBFDU=  5518
 S*AI*S=  19.9090389183    
 ExpMin= 1.00D-02 ExpMax= 8.59D+03 ExpMxC= 1.30D+03 IAcc=3 IRadAn=         5 AccDes= 0.00D+00
 Harris functional with IExCor= 1009 and IRadAn=       5 diagonalized for initial guess.
 HarFok:  IExCor= 1009 AccDes= 0.00D+00 IRadAn=         5 IDoV= 1 UseB2=F ITyADJ=14
 ICtDFT=  3500011 ScaDFX=  1.000000  1.000000  1.000000  1.000000
 FoFCou: FMM=F IPFlag=           0 FMFlag=      100000 FMFlg1=        2001
         NFxFlg=           0 DoJE=T BraDBF=F KetDBF=T FulRan=T
         wScrn=  0.000000 ICntrl=       500 IOpCl=  0 I1Cent=   200000004 NGrid=           0
         NMat0=    1 NMatS0=      1 NMatT0=    0 NMatD0=    1 NMtDS0=    0 NMtDT0=    0
 Symmetry not used in FoFCou.
 Requested convergence on RMS density matrix=1.00D-08 within  32 cycles.
 Requested convergence on MAX density matrix=1.00D-06.
 Requested convergence on             energy=1.00D-06.
 No special actions if energy rises.
 FoFCou: FMM=F IPFlag=           0 FMFlag=      100000 FMFlg1=        2001
         NFxFlg=           0 DoJE=T BraDBF=T KetDBF=F FulRan=T
         wScrn=  0.000000 ICntrl=       500 IOpCl=  0 I1Cent=           5 NGrid=           0
         NMat0=    1 NMatS0=      1 NMatT0=    0 NMatD0=    1 NMtDS0=    0 NMtDT0=    0
 Symmetry not used in FoFCou.
 Inv3:  Mode=1 IEnd=   100815627.
 Iteration    1 A*A^-1 deviation from unit magnitude is 4.00D-15 for   2756.
 Iteration    1 A*A^-1 deviation from orthogonality  is 2.66D-15 for   4013   1509.
 Iteration    1 A^-1*A deviation from unit magnitude is 3.33D-15 for   2756.
 Iteration    1 A^-1*A deviation from orthogonality  is 5.01D-12 for   3185   3081.
 EnCoef did   100 forward-backward iterations
 Rare condition: small coef for last iteration:  0.000D+00
 EnCoef did     7 forward-backward iterations
 EnCoef did   100 forward-backward iterations
 EnCoef did     4 forward-backward iterations
 EnCoef did   100 forward-backward iterations
 Restarting incremental Fock formation.
 Error on total polarization charges =  0.09697
[...]
 4,0.00012881,-0.00002048,0.00001933,-0.00000024,0.00003292,0.00002316,
 -0.00000582,0.00000051,-0.00002145,0.00000695,-0.00003270,-0.00002273,
 -0.00001096,0.00004404,-0.00000410,-0.00000815,-0.00002904,-0.00001934
 ,0.00001522,0.00000979,-0.00004056,0.00000688,-0.00002169,-0.00005325,
 0.00000498,0.00000889,0.00000736,-0.00000607,0.00000068,0.00001182,-0.
 00000178,0.00004097,-0.00000209,-0.00000604,-0.00005614,0.00000512,0.0
 0001319,-0.00003196,0.00000460,0.00001300,0.00005894,-0.00000944,-0.00
 001167,-0.00001650,-0.00000059,-0.00000005,0.00001545,-0.00000146,-0.0
 0000214,-0.00005536,-0.00001326,0.00001438,0.00028974,0.00004982,0.000
 07399,-0.00032420,-0.00000896,-0.00013853,-0.00046014,0.00147065,-0.00
 007063,-0.00000135,-0.00000184,0.00000284,-0.00000092,-0.00000333,-0.0
 0000269,-0.00000601,-0.00000095,0.00000490,-0.00000230,-0.00000473,-0.
 00000436,0.00000511,-0.00000207,0.00000267,0.00000049,-0.00000256,0.00
 000286,0.00000388,-0.00000378,-0.00000005,0.00000445,0.00000133,-0.000
 00596,0.00000643,0.00000043,0.00000476,-0.00000951,-0.00000617,0.00000
 434,-0.00000678,-0.00000236,-0.00000547,-0.00000575,0.00000356,0.00000
 053,0.00073696,0.00131861,-0.00090204,-0.00145601,0.00043086,-0.001243
 47,-0.00114682,-0.00143911,0.00061786,0.11076422,-0.23340191,0.0393131
 3,0.00000391,-0.00000071,-0.00000085,-0.00000351,-0.00000134,-0.000000
 05,0.,0.00000301,-0.00000268,-0.00000052,0.00000865,-0.00000125,0.0000
 0342,0.00000835,-0.00000293,0.00004908,-0.00005713,-0.00001467,0.00003
 222,0.00000890,0.00001529,0.00010969,-0.00025163,-0.00000465,-0.000001
 36,-0.00000514,0.00000111,0.00000334,0.00000569,0.00000053,0.00000090,
 -0.00000007,0.00000127,0.00000222,0.00000012,0.00000164,0.00000032,0.0
 0000189,-0.00000435,-0.00000216,-0.00000422,0.00000262,0.00000029,-0.0
 0000039,0.00000015,0.00000043,-0.00000046,-0.00000188,0.00000055,-0.00
 000080,-0.00000109,0.00000167,-0.00000346,0.00000236,-0.00000276,0.000
 00582,-0.00000329,0.00000014,0.00000057,0.00000125,-0.00000117,-0.0000
 0325,0.00000017,-0.00000039,-0.00000070,-0.00000098,-0.00000061,-0.000
 00022,-0.00000054,-0.00000039,0.00000151,0.00000092,-0.00000062,0.0000
 0359,0.00000192,0.00000180,-0.00000420,-0.00000276,0.00000129,-0.00000
 020,0.00000027,0.00000014,-0.00000006,-0.00000037,0.00000021,-0.000000
 71,0.00000019,0.00000503,-0.00000048,0.00000155,0.00000099,-0.00000085
 ,-0.00000016,-0.00000096,-0.00000022,0.00000061,0.00000098,0.00000105,
 0.00000174,-0.00000064,0.00000124,-0.00000217,0.00000237,-0.00000123,-
 0.00000255,-0.00000516,0.00000242,-0.00000106,0.00000326,0.00000154,0.
 00000087,0.00000108,0.00000074,0.00000001,-0.00000005,-0.00000053,0.00
 000027,0.00000132,0.,0.00000014,-0.00000273,0.00000127,0.00000373,-0.0
 0000362,-0.00000013,0.00000056,0.00000143,0.00000006,0.,0.00000021,0.0
 0000141,-0.00000121,-0.00011169,0.00030411,-0.00002869,0.00042732,-0.0
 0023802,0.00027016,0.00009626,0.00074052,0.00030797,-0.00012435,0.0001
 9574,0.00034291,-0.00001913,0.00010193,-0.00031140,0.00025708,0.000731
 22,-0.00022296,-0.12171654,0.24909624,0.00009310,0.00004119,0.00016742
 ,-0.00007176,0.00003187,-0.00001102,-0.00002944,0.00002157,-0.00002430
 ,0.00003352,0.00008747,0.00033218,0.00005352,-0.00028104,0.00002190,0.
 00000560,-0.00001465,0.00000309,-0.00004317,-0.00002399,0.00001306,0.0
 0003090,0.00003784,-0.00001040,0.00006486,-0.00000885,-0.00000526,-0.0
 0003891,-0.00003157,-0.00001562,0.00014177,0.00010449,-0.00005005,-0.0
 0000969,0.00001912,-0.00000190,0.00003639,0.00008986,-0.00000370,-0.00
 000251,-0.00000884,0.00000309,0.00000456,-0.00001252,-0.00000246,-0.00
 003226,0.00001148,0.00000483,0.00007462,-0.00002317,-0.00001558,0.0000
 1056,0.00000592,-0.00000784,-0.00009838,0.00001693,0.00001200,0.000009
 23,0.00000373,-0.00000102,-0.00001670,0.00000806,0.00000057,-0.0001069
 4,0.00005585,0.00005600,-0.00030498,-0.00008041,0.00017750,0.00050310,
 -0.00014915,-0.00085971,-0.00131432,-0.00248489,-0.00595539,0.00000123
 ,0.00000236,-0.00000381,0.00000076,0.00000189,0.00000041,0.00000391,0.
 00000173,-0.00000110,0.00000079,0.00000522,0.00000408,-0.00000571,0.00
 000406,0.00000237,-0.00000158,0.00000694,-0.00000281,-0.00000139,0.000
 00303,0.00000103,-0.00000319,-0.00000113,0.00000409,-0.00000641,-0.000
 00196,-0.00000282,0.00000584,0.00000076,-0.00000504,0.00000692,-0.0000
 0017,0.00000427,0.00000596,-0.00000544,0.00000108,0.00364994,0.0007090
 2,-0.00278013,-0.01640440,0.02867948,-0.00664776,0.01022413,-0.0194427
 6,0.00368842,-0.02318705,0.03875879,-0.05373515,-0.00000357,0.00000035
 ,0.00000006,0.00000350,0.00000033,-0.00000244,-0.00000198,-0.00000398,
 0.00000047,0.00000031,-0.00000963,-0.00000116,-0.00001362,-0.00000459,
 0.00000908,-0.00004662,-0.00003473,-0.00003247,-0.00004203,0.00000353,
 0.00007849,-0.00132659,0.00160055,-0.00055329,0.00000083,0.00000338,0.
 00000096,-0.00000229,-0.00000540,-0.00000133,-0.00000154,0.00000104,0.
 00000102,-0.00000122,0.00000014,-0.00000033,-0.00000085,-0.00000195,0.
 00000460,0.00000147,0.00000317,-0.00000276,-0.00000005,0.00000247,-0.0
 0000119,-0.00000051,0.00000020,0.00000029,-0.00000009,0.,0.00000034,-0
 .00000246,0.00000481,-0.00000163,0.00000319,-0.00000695,0.00000402,0.0
 0000044,0.00000073,-0.00000133,0.00000069,0.00000405,-0.00000002,0.000
 00108,0.00000034,0.00000015,0.00000047,-0.00000025,0.00000006,0.000002
 46,0.00000106,0.00000042,-0.00000023,-0.00000602,-0.00000494,-0.000001
 17,0.00000401,0.00000328,-0.00000229,-0.00000089,0.00000066,-0.0000007
 4,-0.00000030,-0.00000061,0.00000036,-0.00000045,-0.00000002,-0.000003
 49,0.00000064,-0.00000165,0.00000007,0.00000067,0.00000016,0.00000052,
 -0.00000044,0.00000008,0.00000016,-0.00000053,-0.00000038,0.00000019,-
 0.00000020,0.00000111,-0.00000177,0.00000175,0.00000262,0.00000431,-0.
 00000246,0.00000175,-0.00000048,-0.00000100,-0.00000016,-0.00000111,0.
 00000113,0.00000189,0.00000043,-0.00000021,0.00000015,-0.00000091,-0.0
 0000052,-0.00000004,0.00000281,-0.00000150,-0.00000371,0.00000387,0.00
 000131,-0.00000121,-0.00000021,0.00000049,-0.00000073,-0.00000051,-0.0
 0000077,0.00000089,-0.00015859,0.00021000,-0.00007982,0.00113031,-0.00
 110452,0.00034801,0.00033552,-0.00033653,0.00149660,0.00070643,0.00002
 900,0.00140336,-0.00087814,-0.00009307,0.00080045,-0.00067290,0.000382
 19,0.00066995,0.02479358,-0.04248863,0.06164717,-0.00000110,0.00000149
 ,-0.00006512,0.00003231,-0.00001260,0.00000154,0.00001379,0.00000606,0
 .00000201,-0.00016605,0.00002681,-0.00000102,-0.00009207,0.00024085,0.
 00011451,0.00000320,0.00000053,0.00000013,0.00002408,0.00001213,-0.000
 00159,-0.00003232,-0.00001829,0.00000765,-0.00001412,-0.00001453,-0.00
 001266,-0.00002421,0.00003566,0.00000468,0.00000720,0.00002812,-0.0000
 0621,-0.00000052,0.00000613,-0.00000231,-0.00001024,-0.00002448,-0.000
 00212,0.00000183,0.00000145,-0.00000244,-0.00000271,0.00000332,0.00000
 092,-0.00000012,-0.00000881,0.00000138,-0.00002318,0.00000624,0.000007
 53,0.00001115,0.00000171,0.00000120,0.00002019,0.00000369,-0.00002079,
 -0.00000465,-0.00000098,-0.00000035,0.00000574,-0.00000191,-0.00000050
 ,0.00010009,0.00001920,-0.00004128,0.00032787,0.00009494,0.00019714,-0
 .00000263,0.00009275,0.00002591,0.00001415,-0.00097057,0.00040882,0.00
 000055,0.00000081,0.00000058,-0.00000005,-0.00000001,0.00000027,-0.000
 00115,-0.00000015,-0.00000005,-0.00000217,-0.00000318,-0.00000194,0.00
 000256,-0.00000204,0.00000150,-0.00000201,-0.00000124,0.00000005,0.000
 00044,-0.00000036,-0.00000025,0.00000026,0.00000027,-0.00000072,0.0000
 0104,0.00000004,0.00000027,-0.00000166,-0.00000192,-0.00000155,-0.0000
 0227,-0.00000162,-0.00000113,-0.00000243,0.00000314,-0.00000106,0.0012
 0789,-0.00127966,-0.00067495,-0.00709926,-0.00751992,-0.00208774,-0.01
 764676,-0.01997317,-0.00321511,-0.14418209,-0.11786943,-0.02522245,0.0
 0000021,0.00000052,0.00000029,-0.00000119,0.00000016,-0.00000109,0.000
 00056,0.00000088,-0.00000121,0.00000038,0.00001515,-0.00000769,0.00000
 231,-0.00000710,-0.00000451,0.00000517,-0.00007733,0.00016053,0.000045
 79,0.00001662,0.00002663,0.00000959,0.00012240,-0.00002526,0.00000046,
 -0.00000105,0.00000052,0.00000018,-0.00000011,-0.00000044,-0.00000098,
 0.00000023,0.00000075,0.00000088,-0.00000041,0.00000058,0.00000087,0.0
 0000010,-0.00000083,-0.00000043,-0.00000124,0.00000061,0.00000009,0.00
 000030,0.00000003,-0.00000040,0.00000034,-0.00000040,0.00000075,-0.000
 00036,0.00000047,0.00000123,-0.00000033,0.00000034,-0.00000052,0.00000
 165,-0.00000189,-0.00000019,0.00000016,0.00000202,-0.00000028,-0.00000
 140,-0.00000034,-0.00000148,-0.00000117,0.00000032,0.00000170,0.000001
 27,-0.00000017,0.00000282,0.00000252,0.00000266,-0.00000148,0.00000131
 ,-0.00000183,0.00000158,-0.00000365,-0.00000041,-0.00000028,-0.0000000
 8,-0.00000013,0.00000061,-0.00000028,-0.00000033,0.00000098,0.,0.00000
 060,0.00000087,0.00000010,-0.00000017,0.00000011,0.00000006,0.00000051
 ,0.00000002,-0.00000030,-0.00000048,0.00000084,0.00000034,0.00000064,-
 0.00000009,0.00000029,0.00000017,-0.00000019,0.00000036,-0.00000010,-0
 .00000132,0.00000036,0.00000060,-0.00000032,-0.00000146,-0.00000024,0.
 00000045,0.00000194,0.00000200,-0.00000061,-0.00000075,0.00000077,-0.0
 0000011,-0.00000031,-0.00000101,-0.00000069,0.00000161,0.00000132,-0.0
 0000206,-0.00000028,0.00000020,0.00000118,0.00000031,0.00000035,0.0000
 0003,-0.00000036,-0.00000051,0.00017749,0.00041614,-0.00008358,0.00029
 613,0.00013835,0.00011959,0.00015669,0.00000377,-0.00198585,0.00047651
 ,0.00035824,0.00003125,0.00124294,0.00036798,-0.00024636,-0.00380336,0
 .00048335,0.00339841,0.00999168,0.01273800,0.00289054,0.15893426,-0.00
 008882,0.00006769,-0.00009876,-0.00000836,0.00001755,0.00002268,0.0000
 2790,0.00000086,0.00000367,-0.00008041,0.00005428,-0.00002699,0.000161
 87,-0.00021733,0.00048055,0.00001289,-0.00001489,-0.00000077,0.0000146
 5,0.00000427,-0.00000213,-0.00000621,0.00001054,0.00000131,-0.00000249
 ,-0.00001802,-0.00000997,-0.00003861,0.00001675,0.00000931,0.00005283,
 0.00008060,-0.00002207,-0.00000878,0.00003315,-0.00000774,0.00001691,0
 .00000318,-0.00000426,-0.00000124,-0.00000631,0.00000234,0.00000060,-0
 .00000383,0.00000123,-0.00002757,-0.00000277,0.00000801,-0.00000131,0.
 00000377,0.00000196,0.00002507,-0.00000324,-0.00000121,-0.00003653,0.0
 0003529,-0.00001779,0.00000567,-0.00000356,-0.00000502,-0.00000643,0.0
 0000226,0.00000006,0.00004216,0.00000148,-0.00002856,0.00005758,-0.000
 18418,0.00042965,0.00016197,0.00002563,0.00011805,0.00033482,-0.000202
 50,-0.00016690,0.00000114,0.00000371,-0.00000340,0.00000033,0.00000354
 ,-0.00000009,0.00000229,0.00000144,-0.00000106,-0.00000027,0.00000090,
 0.00000056,-0.00000052,-0.00000163,0.00000191,-0.00000095,0.00000003,-
 0.00000102,-0.00000175,0.00000314,0.00000252,-0.00000274,0.00000007,0.
 00000232,-0.00000378,-0.00000126,-0.00000082,0.00000167,0.00000428,-0.
 00000552,0.00000362,0.00000189,-0.00000172,0.00000123,-0.00000095,-0.0
 0000056,0.00071325,0.00100928,0.00003474,0.00034881,-0.00001777,-0.000
 52603,0.00185803,0.00094321,0.00076334,-0.11886020,-0.19520632,-0.0302
 3246,-0.00000361,0.00000135,0.00000046,0.00000038,-0.00000100,-0.00000
 126,-0.00000003,-0.00000357,-0.00000042,0.00000502,0.00000071,-0.00001
 015,0.00000013,-0.00000309,0.00000161,-0.00004373,0.00006462,0.0000286
 6,-0.00000758,-0.00005153,-0.00000232,-0.00014608,0.00014214,-0.000100
 58,0.00000067,0.00000242,0.00000119,-0.00000293,-0.00000493,-0.0000016
 6,-0.00000136,0.00000054,0.00000198,-0.00000019,0.00000005,0.00000010,
 -0.00000031,-0.00000319,0.00000248,0.00000253,0.00000280,-0.00000289,0
 .00000002,0.00000241,-0.00000055,-0.00000033,0.00000064,0.00000009,-0.
 00000003,0.00000010,-0.00000020,0.00000058,0.00000154,-0.00000045,0.00
 000138,-0.00000136,0.00000064,-0.00000009,0.00000092,0.00000022,-0.000
 00030,-0.00000024,-0.00000097,-0.00000098,0.00000006,0.00000022,0.0000
 0176,0.00000137,-0.00000007,0.00000186,0.00000008,0.00000173,-0.000000
 21,-0.00000148,-0.00000336,-0.00000056,0.00000169,0.00000057,-0.000000
 64,-0.00000035,0.00000016,-0.00000031,-0.00000030,-0.00000024,0.000000
 16,-0.00000080,-0.00000013,-0.00000287,0.00000075,-0.00000073,-0.00000
 022,0.00000051,0.00000099,0.00000022,-0.00000030,-0.00000036,0.0000008
 2,-0.00000007,0.,0.00000195,-0.00000113,0.00000010,-0.00000259,0.00000
 106,0.00000193,0.00000112,-0.00000147,0.00000294,-0.00000026,-0.000002
 85,-0.00000070,0.00000200,0.00000270,0.00000092,0.00000011,-0.00000141
 ,0.00000219,-0.00000083,0.00000045,-0.00000055,0.00000105,-0.00000020,
 -0.00000054,0.00000067,0.00000009,-0.00000031,0.00000046,0.00000103,0.
 00000105,-0.00000024,-0.00000258,0.00000103,-0.00050674,0.00030660,-0.
 00013000,-0.00003932,0.00015884,0.00003182,0.00004152,0.00125790,-0.00
 019991,-0.00006948,0.00012701,-0.00026465,-0.00014931,0.00026403,0.000
 34766,0.00046772,0.00120026,0.00003291,-0.01676196,-0.01912559,-0.0042
 8997,0.13254266,0.20921859,0.00020529,-0.00006010,0.00002705,0.0000262
 7,-0.00003457,-0.00002396,-0.00001841,0.00001680,0.00000425,-0.0001560
 9,0.00000181,0.00015413,-0.00044426,0.00084543,0.00014662,-0.00000019,
 0.00000673,0.00000204,0.00000655,-0.00000948,-0.00000480,-0.00003811,-
 0.00002188,0.00000806,-0.00000572,-0.00002047,-0.00000495,-0.00000554,
 0.00002674,-0.00001495,0.00010430,0.00000586,-0.00002670,0.00000563,-0
 .00001120,0.00000287,0.,-0.00000252,0.00000826,0.00000143,0.00000686,-
 0.00000249,-0.00000440,0.00000223,0.00000360,0.00001875,-0.00000883,-0
 .00000161,-0.00000235,-0.00000304,0.00000124,-0.00000784,0.00000120,-0
 .00000022,-0.00000450,0.00001163,0.00001178,-0.00000595,-0.00000297,0.
 00000112,0.00000246,-0.00000161,-0.00000302,0.00006300,0.00002796,-0.0
 0001900,0.00025492,0.00017061,-0.00003188,0.00009794,-0.00000831,-0.00
 027876,0.00046311,-0.00064246,0.00144285,-0.00000092,-0.00000279,0.000
 00384,-0.00000114,-0.00000313,-0.00000013,-0.00000233,-0.00000140,-0.0
 0000041,0.00000026,-0.00000224,-0.00000040,0.00000261,-0.00000243,-0.0
 0000034,0.00000003,-0.00000238,0.00000069,0.00000143,-0.00000153,0.000
 00036,0.00000215,0.00000087,-0.00000288,0.00000294,0.00000136,0.000000
 81,-0.00000064,0.00000350,0.00000240,-0.00000150,-0.00000071,-0.000000
 12,-0.00000201,0.00000161,0.00000004,-0.00096089,0.00064593,0.00051126
 ,-0.02016019,-0.02614633,-0.00611235,0.01453399,0.01714082,0.00176614,
 -0.02543199,-0.02993847,-0.05179577,0.00000145,-0.00000053,-0.00000133
 ,-0.00000167,-0.00000184,-0.00000075,0.00000097,0.00000198,-0.00000195
 ,0.00000465,-0.00000354,-0.00000310,0.00000542,0.00000034,-0.00000151,
 0.00006753,-0.00013759,-0.00016344,0.00000562,-0.00000424,-0.00001054,
 0.00026287,0.00005830,0.00001674,-0.00000074,-0.00000149,-0.00000041,0
 .00000156,0.00000303,0.00000084,0.00000065,-0.00000052,-0.00000218,0.0
 0000133,-0.00000023,0.00000045,0.00000004,0.00000128,-0.00000335,-0.00
 000101,-0.00000134,0.00000166,-0.00000011,-0.00000210,0.00000066,-0.00
 000003,0.00000033,0.00000079,0.00000058,-0.00000009,0.00000060,0.00000
 083,-0.00000117,0.00000045,-0.00000128,0.00000188,-0.00000189,-0.00000
 071,-0.00000105,0.00000096,-0.00000045,-0.00000152,-0.00000008,-0.0000
 0002,0.00000033,0.00000062,0.00000016,-0.00000023,-0.00000040,-0.00000
 106,-0.00000051,-0.00000057,0.00000098,0.00000088,0.00000161,0.0000010
 2,-0.00000152,-0.00000083,0.00000178,0.00000087,-0.00000025,0.00000010
 ,0.00000015,0.00000029,-0.00000002,0.00000032,-0.00000029,0.00000216,-
 0.00000039,0.00000118,-0.00000016,0.00000025,0.00000010,-0.00000027,0.
 00000043,0.00000017,-0.00000015,0.00000046,-0.00000002,0.00000020,0.00
 000013,0.00000022,0.00000149,-0.00000105,-0.00000122,-0.00000046,-0.00
 000068,-0.00000045,-0.00000048,0.,0.00000153,0.00000069,-0.00000026,-0
 .00000179,0.00000033,-0.00000011,0.00000020,0.00000026,0.00000123,-0.0
 0000118,-0.00000154,0.00000067,0.00000142,-0.00000107,-0.00000087,0.00
 000034,-0.00000022,0.00000018,0.00000026,0.00000015,-0.00000098,0.0000
 0023,-0.00027319,-0.00029303,0.00010170,-0.00023270,0.00003915,-0.0000
 9930,-0.00268109,0.00027003,-0.00610236,0.00068308,0.00012890,0.001346
 89,-0.00078301,0.00024576,0.00089220,0.00425236,-0.00049298,-0.0019242
 4,0.00383576,0.00437396,-0.00014136,0.02630938,0.03382995,0.06031803\\
 -0.00000581,0.00000076,-0.00000276,0.00000088,-0.00000010,0.00000051,-
 0.00000112,0.00000089,0.00000120,0.00000179,-0.00000060,0.00000259,0.0
 0000226,-0.00000025,-0.00000048,0.00000011,0.00000078,0.00000014,-0.00
 000073,-0.00000083,-0.00000025,-0.00000035,0.00000081,0.00000014,0.000
 00277,-0.00000119,-0.00000020,-0.00000059,0.00000021,0.00000033,0.0000
 0076,0.00000111,0.00000019,0.00000020,0.00000029,0.00000041,-0.0000005
 7,0.00000061,-0.00000046,0.00000055,0.00000043,0.00000047,0.00000049,-
 0.00000010,-0.00000010,0.00000048,0.00000049,0.00000031,0.00000098,-0.
 00000148,-0.00000045,-0.00000033,0.00000046,0.00000042,-0.00000123,-0.
 00000145,0.00000007,-0.00000008,0.00000082,0.00000057,-0.00000027,-0.0
 0000032,-0.00000070,0.00000073,0.00000040,-0.00000088,-0.00000249,-0.0
 0000109,-0.00000072,0.00000027,0.00000066,-0.00000032,-0.00000092,-0.0
 0000018,-0.00000009,0.00000045,0.00000014,0.00000015,0.00000035,0.0000
 0014,0.00000018,0.00000033,0.00000047,0.00000067,0.00000025,-0.0000003
 3,0.,0.00000032,-0.00000039,0.,0.00000009,-0.00000051,0.00000037,0.000
 00009,0.00000072,0.00000043,0.00000024,0.00000099,0.00000054,0.0000003
 7,0.00000078,0.00000060,-0.00000016,-0.00000095,-0.00000061,-0.0000004
 1,-0.00000080,-0.00000052,0.00000008,-0.00000077,-0.00000037,-0.000000
 75,0.,-0.00000007,-0.00000020,0.00000004,-0.00000011,-0.00000011,-0.00
 000013,-0.00000033,-0.00000046,-0.00000030,-0.00000008,0.00000022,0.00
 000056,0.00000043,0.00000014,-0.00000062,-0.00000020,-0.00000012,0.000
 00058,0.00000028,-0.00000020,-0.00000044,-0.00000048,-0.00000003,0.000
 00029,0.00000014,-0.00000074,0.00000014,-0.00000099,-0.00000027,0.0000
 0019,-0.00000006,-0.00000038,0.00000040,-0.00000019,0.00000020,0.00000
 013,0.00000029,0.00000156,-0.00000070,-0.00000089,0.00000046,0.0000001
 9,0.00000030,0.00000020,0.00000051,0.00000037,-0.00000015,0.00000091,-
 0.00000013,0.00000036,0.00000022,0.00000030,0.00000043,0.00000038,0.00
 000043,0.00000064,0.00000050,0.00000040,0.00000042,0.00000056,0.000000
 51,0.00000036,-0.00000018,0.00000011,-0.00000077,-0.00000002,0.0000007
 1,0.00000013,-0.00000012,0.00000004,0.00000055,-0.00000044,0.00000002,
 0.00000035,-0.00000040,-0.00000017,0.00000034,-0.00000059,-0.00000008,
 0.00000047,-0.00000036,-0.00000009,0.00000028,-0.00000016,0.00000004,0
 .00000053,-0.00000031,0.00000012,0.00000002,0.00000091,0.00000059,0.00
 000006,0.00000070,0.00000040,-0.00000010,0.00000084,0.00000046,0.00000
 012,0.00000099,0.00000068,-0.00000002,0.00000094,0.00000049,0.00000025
 ,0.00000079,0.00000069,0.00000043,0.00000066,0.00000061,0.00000034,0.0
 0000064,0.00000051,0.00000035,0.00000083,0.00000061,-0.00000027,-0.000
 00094,-0.00000069,-0.00000021,-0.00000074,-0.00000065,-0.00000007,-0.0
 0000080,-0.00000048,-0.00000034,-0.00000058,-0.00000049,-0.00000038,-0
 .00000063,-0.00000049,-0.00000038,-0.00000080,-0.00000060,-0.00000011,
 -0.00000088,-0.00000056,0.00000017,-0.00000084,-0.00000042,0.00000004,
 -0.00000070,-0.00000049,0.00000004,-0.00000011,-0.00000042,-0.00000020
 ,-0.00000010,-0.00000008,-0.00000067,-0.00000008,-0.00000031,-0.000000
 41,-0.00000002,-0.00000044,-0.00000032,-0.00000025,-0.00000026,-0.0000
 0049,-0.00000010,-0.00000026,-0.00000058,-0.00000037,-0.00000044,-0.00
 000050,-0.00000081,0.00000009\\\@
 The archive entry for this job was punched.


 YOU KNOW YOU'VE SPOKEN TOO LONG WHEN THE AUDIENCE STOPS LOOKING AT
 THEIR WATCHES AND STARTS SHAKING THEM.
 Job cpu time:       7 days  7 hours 16 minutes 37.8 seconds.
 Elapsed time:       0 days  1 hours 25 minutes  0.5 seconds.
 File lengths (MBytes):  RWF=  11796 Int=      0 D2E=      0 Chk=    436 Scr=      1
 Normal termination of Gaussian 16 at Thu Nov 28 15:42:44 2024.
1557380.48user 4319.08system 3:29:30elapsed 12423%CPU (0avgtext+0avgdata 63796280maxresident)k
1416inputs+10504400outputs (33389major+212540275minor)pagefaults 0swaps
