 Entering Gaussian System, Link 0=g16
 Initial command:
 /common/software/install/migrated/gaussian/g16.c01.avx2/g16/l1.exe "/tmp/quach062/27944082/Gau-296192.inp" -scrdir="/tmp/quach062/27944082/"
 Entering Link 1 = /common/software/install/migrated/gaussian/g16.c01.avx2/g16/l1.exe PID=    296193.
  
 Copyright (c) 1988-2019, Gaussian, Inc.  All Rights Reserved.
  
 This is part of the Gaussian(R) 16 program.  It is based on
 the Gaussian(R) 09 system (copyright 2009, Gaussian, Inc.),
 the Gaussian(R) 03 system (copyright 2003, Gaussian, Inc.),
 the Gaussian(R) 98 system (copyright 1998, Gaussian, Inc.),
 the Gaussian(R) 94 system (copyright 1995, Gaussian, Inc.),
 the Gaussian 92(TM) system (copyright 1992, Gaussian, Inc.),
 the Gaussian 90(TM) system (copyright 1990, Gaussian, Inc.),
 the Gaussian 88(TM) system (copyright 1988, Gaussian, Inc.),
 the Gaussian 86(TM) system (copyright 1986, Carnegie Mellon
 University), and the Gaussian 82(TM) system (copyright 1983,
 Carnegie Mellon University). Gaussian is a federally registered
 trademark of Gaussian, Inc.
  
 This software contains proprietary and confidential information,
 including trade secrets, belonging to Gaussian, Inc.
  
 This software is provided under written license and may be
 used, copied, transmitted, or stored only in accord with that
 written license.
  
 The following legend is applicable only to US Government
 contracts under FAR:
  
                    RESTRICTED RIGHTS LEGEND
  
 Use, reproduction and disclosure by the US Government is
 subject to restrictions as set forth in subparagraphs (a)
 and (c) of the Commercial Computer Software - Restricted
 Rights clause in FAR 52.227-19.
  
 Gaussian, Inc.
 340 Quinnipiac St., Bldg. 40, Wallingford CT 06492
  
  
 ---------------------------------------------------------------
 Warning -- This program may not be used in any manner that
 competes with the business of Gaussian, Inc. or will provide
 assistance to any competitor of Gaussian, Inc.  The licensee
 of this program is prohibited from giving any competitor of
 Gaussian, Inc. access to this program.  By using this program,
 the user acknowledges that Gaussian, Inc. is engaged in the
 business of creating and licensing software in the field of
 computational chemistry and represents and warrants to the
 licensee that it is not a competitor of Gaussian, Inc. and that
 it will not use this program in any manner prohibited above.
 ---------------------------------------------------------------
  

 Cite this work as:
 Gaussian 16, Revision C.01,
 M. J. Frisch, G. W. Trucks, H. B. Schlegel, G. E. Scuseria, 
 M. A. Robb, J. R. Cheeseman, G. Scalmani, V. Barone, 
 G. A. Petersson, H. Nakatsuji, X. Li, M. Caricato, A. V. Marenich, 
 J. Bloino, B. G. Janesko, R. Gomperts, B. Mennucci, H. P. Hratchian, 
 J. V. Ortiz, A. F. Izmaylov, J. L. Sonnenberg, D. Williams-Young, 
 F. Ding, F. Lipparini, F. Egidi, J. Goings, B. Peng, A. Petrone, 
 T. Henderson, D. Ranasinghe, V. G. Zakrzewski, J. Gao, N. Rega, 
 G. Zheng, W. Liang, M. Hada, M. Ehara, K. Toyota, R. Fukuda, 
 J. Hasegawa, M. Ishida, T. Nakajima, Y. Honda, O. Kitao, H. Nakai, 
 T. Vreven, K. Throssell, J. A. Montgomery, Jr., J. E. Peralta, 
 F. Ogliaro, M. J. Bearpark, J. J. Heyd, E. N. Brothers, K. N. Kudin, 
 V. N. Staroverov, T. A. Keith, R. Kobayashi, J. Normand, 
 K. Raghavachari, A. P. Rendell, J. C. Burant, S. S. Iyengar, 
 J. Tomasi, M. Cossi, J. M. Millam, M. Klene, C. Adamo, R. Cammi, 
 J. W. Ochterski, R. L. Martin, K. Morokuma, O. Farkas, 
 J. B. Foresman, and D. J. Fox, Gaussian, Inc., Wallingford CT, 2019.
 
 ******************************************
 Gaussian 16:  ES64L-G16RevC.01  3-Jul-2019
                10-Dec-2024 
 ******************************************
 %chk=dmf_0.chk
 %lindaworkers=in-cn0088
 %nprocshared=128
 Will use up to  128 processors via shared memory.
 %mem=59800MB
 SetLPE:  input flags=" -workerwait 900 -opt "Tsnet.Node.lindarsharg: ssh " "
 SetLPE:    new flags=" -workerwait 900 -opt "Tsnet.Node.lindarsharg: ssh " -opt 'Tsnet.Node.lindarsharg: ssh'  -nodelist 'in-cn0088' -env GAUSS_MDEF=7838105600 -env GAUSS_EXEDIR="/common/software/install/migrated/gaussian/g16.c01.avx2/g16/bsd:/common/software/install/migrated/gaussian/g16.c01.avx2/g16/local:/common/software/install/migrated/gaussian/g16.c01.avx2/g16/extras:/common/software/install/migrated/gaussian/g16.c01.avx2/g16""
 Will use up to    1 processors via Linda.
 ----------------------------------------------------------------------
 # opt=calcfc # freq # m06l/6-311++g(d,p)/auto # nosymm integral=grid=u
 ltrafine # scf=(tight,intrep,xqc) # SCRF=(SMD,Solvent=n,n-DiMethylForm
 amide)
 ----------------------------------------------------------------------
 1/10=4,18=20,19=15,26=6,38=1/1,3;
 2/9=110,12=2,15=1,17=6,18=5,40=1/2;
 3/5=4,6=6,7=1111,11=2,25=1,30=1,70=32201,71=2,72=148,74=-53,75=-5,82=28,140=1/1,2,3;
 4//1;
 5/5=2,8=3,13=1,17=20,32=2,38=5,53=148/2,8;
 8/6=4,10=90,11=11/1;
 11/6=1,8=1,9=11,15=111,16=1,31=1/1,2,10;
 10/6=1,13=1,31=1/2;
 6/7=2,8=2,9=2,10=2,28=1/1;
 7/10=1,25=1,30=1/1,2,3,16;
 1/10=4,18=20,19=15,26=6/3(2);
 2/9=110,15=1/2;
 99//99;
 2/9=110,15=1/2;
 3/5=4,6=6,7=1111,11=2,25=1,30=1,70=32205,71=1,72=148,74=-53,75=-5,82=28/1,2,3;
 4/5=5,16=3,69=1/1;
 5/5=2,8=3,13=1,17=20,32=2,38=5,53=148/2,8;
 7/30=1/1,2,3,16;
 1/18=20,19=15,26=6/3(-5);
 2/9=110,15=1/2;
 6/7=2,8=2,9=2,10=2,19=2,28=1/1;
 99/9=1/99;
 -------------------
 Title Card Required
 -------------------
 Symbolic Z-matrix:
 Charge =  0 Multiplicity = 1
 O                     1.89558  -0.02782  -0.08646 
 N                    -0.40092  -0.00057   0.03289 
 C                    -0.59417   1.4424   -0.06633 
 C                    -1.59761  -0.80474   0.03607 
 C                     0.79476  -0.60113  -0.03482 
 H                    -1.35401   1.74864   0.62198 
 H                     0.32238   1.94199   0.16873 
 H                    -2.21412  -0.57699   0.91424 
 H                    -1.3443   -1.8671    0.05668 
 H                    -2.20449  -0.59946  -0.85526 
 H                     0.70904  -1.7064   -0.05795 
 H                    -0.89258   1.69463  -1.06243 
 

 GradGradGradGradGradGradGradGradGradGradGradGradGradGradGradGradGradGrad
 Berny optimization.
 Initialization pass.
                           ----------------------------
                           !    Initial Parameters    !
                           ! (Angstroms and Degrees)  !
 --------------------------                            --------------------------
 ! Name  Definition              Value          Derivative Info.                !
 --------------------------------------------------------------------------------
 ! R1    R(1,5)                  1.2422         calculate D2E/DX2 analytically  !
 ! R2    R(2,3)                  1.4592         calculate D2E/DX2 analytically  !
 ! R3    R(2,4)                  1.4418         calculate D2E/DX2 analytically  !
 ! R4    R(2,5)                  1.3397         calculate D2E/DX2 analytically  !
 ! R5    R(3,6)                  1.07           calculate D2E/DX2 analytically  !
 ! R6    R(3,7)                  1.07           calculate D2E/DX2 analytically  !
 ! R7    R(3,12)                 1.07           calculate D2E/DX2 analytically  !
 ! R8    R(4,8)                  1.0969         calculate D2E/DX2 analytically  !
 ! R9    R(4,9)                  1.0923         calculate D2E/DX2 analytically  !
 ! R10   R(4,10)                 1.0977         calculate D2E/DX2 analytically  !
 ! R11   R(5,11)                 1.1088         calculate D2E/DX2 analytically  !
 ! A1    A(3,2,4)              116.2169         calculate D2E/DX2 analytically  !
 ! A2    A(3,2,5)              123.9197         calculate D2E/DX2 analytically  !
 ! A3    A(4,2,5)              119.3957         calculate D2E/DX2 analytically  !
 ! A4    A(2,3,6)              109.4712         calculate D2E/DX2 analytically  !
 ! A5    A(2,3,7)              109.4712         calculate D2E/DX2 analytically  !
 ! A6    A(2,3,12)             109.4712         calculate D2E/DX2 analytically  !
 ! A7    A(6,3,7)              109.4712         calculate D2E/DX2 analytically  !
 ! A8    A(6,3,12)             109.4712         calculate D2E/DX2 analytically  !
 ! A9    A(7,3,12)             109.4712         calculate D2E/DX2 analytically  !
 ! A10   A(2,4,8)              110.639          calculate D2E/DX2 analytically  !
 ! A11   A(2,4,9)              110.4884         calculate D2E/DX2 analytically  !
 ! A12   A(2,4,10)             110.6577         calculate D2E/DX2 analytically  !
 ! A13   A(8,4,9)              108.4918         calculate D2E/DX2 analytically  !
 ! A14   A(8,4,10)             107.4894         calculate D2E/DX2 analytically  !
 ! A15   A(9,4,10)             108.9896         calculate D2E/DX2 analytically  !
 ! A16   A(1,5,2)              125.8795         calculate D2E/DX2 analytically  !
 ! A17   A(1,5,11)             121.849          calculate D2E/DX2 analytically  !
 ! A18   A(2,5,11)             112.2645         calculate D2E/DX2 analytically  !
 ! D1    D(4,2,3,6)             46.8512         calculate D2E/DX2 analytically  !
 ! D2    D(4,2,3,7)            166.8512         calculate D2E/DX2 analytically  !
 ! D3    D(4,2,3,12)           -73.1488         calculate D2E/DX2 analytically  !
 ! D4    D(5,2,3,6)           -141.065          calculate D2E/DX2 analytically  !
 ! D5    D(5,2,3,7)            -21.065          calculate D2E/DX2 analytically  !
 ! D6    D(5,2,3,12)            98.935          calculate D2E/DX2 analytically  !
 ! D7    D(3,2,4,8)            -63.0088         calculate D2E/DX2 analytically  !
 ! D8    D(3,2,4,9)            176.8226         calculate D2E/DX2 analytically  !
 ! D9    D(3,2,4,10)            56.0178         calculate D2E/DX2 analytically  !
 ! D10   D(5,2,4,8)            124.5288         calculate D2E/DX2 analytically  !
 ! D11   D(5,2,4,9)              4.3602         calculate D2E/DX2 analytically  !
 ! D12   D(5,2,4,10)          -116.4446         calculate D2E/DX2 analytically  !
 ! D13   D(3,2,5,1)              5.8191         calculate D2E/DX2 analytically  !
 ! D14   D(3,2,5,11)          -173.2292         calculate D2E/DX2 analytically  !
 ! D15   D(4,2,5,1)            177.6661         calculate D2E/DX2 analytically  !
 ! D16   D(4,2,5,11)            -1.3821         calculate D2E/DX2 analytically  !
 --------------------------------------------------------------------------------
 Trust Radius=3.00D-01 FncErr=5.00D-06 GrdErr=5.00D-06 EigMax=2.50D+02 EigMin=1.00D-04
 Number of steps in this run=     55 maximum allowed number of steps=    100.
 GradGradGradGradGradGradGradGradGradGradGradGradGradGradGradGradGradGrad

                          Input orientation:                          
 ---------------------------------------------------------------------
 Center     Atomic      Atomic             Coordinates (Angstroms)
 Number     Number       Type             X           Y           Z
 ---------------------------------------------------------------------
      1          8           0        1.895578   -0.027819   -0.086459
      2          7           0       -0.400918   -0.000567    0.032885
      3          6           0       -0.594167    1.442395   -0.066325
      4          6           0       -1.597611   -0.804735    0.036074
      5          6           0        0.794764   -0.601134   -0.034823
      6          1           0       -1.354005    1.748643    0.621976
      7          1           0        0.322376    1.941990    0.168734
      8          1           0       -2.214122   -0.576994    0.914240
      9          1           0       -1.344303   -1.867098    0.056677
     10          1           0       -2.204490   -0.599462   -0.855263
     11          1           0        0.709036   -1.706404   -0.057947
     12          1           0       -0.892575    1.694629   -1.062433
 ---------------------------------------------------------------------
                    Distance matrix (angstroms):
                    1          2          3          4          5
     1  O    0.000000
     2  N    2.299756   0.000000
     3  C    2.891499   1.459221   0.000000
     4  C    3.580640   1.441794   2.463124   0.000000
     5  C    1.242235   1.339746   2.471059   2.402070   0.000000
     6  H    3.770608   2.077291   1.070000   2.631038   3.251161
     7  H    2.533818   2.077291   1.070000   3.353871   2.594623
     8  H    4.265281   2.096846   2.768338   1.096872   3.155107
     9  H    3.728306   2.091526   3.395670   1.092339   2.487297
    10  H    4.210510   2.097702   2.717488   1.097689   3.109445
    11  H    2.055807   2.037186   3.407836   2.478400   1.108831
    12  H    3.419525   2.077291   1.070000   2.819683   3.028799
                    6          7          8          9         10
     6  H    0.000000
     7  H    1.747303   0.000000
     8  H    2.496759   3.651696   0.000000
     9  H    3.659677   4.159270   1.776617   0.000000
    10  H    2.901578   3.727278   1.769672   1.782823   0.000000
    11  H    4.081150   3.675822   3.281092   2.062804   3.217090
    12  H    1.747303   1.747303   3.288464   3.760634   2.650829
                   11         12
    11  H    0.000000
    12  H    3.891167   0.000000
 Symmetry turned off by external request.
 Stoichiometry    C3H7NO
 Framework group  C1[X(C3H7NO)]
 Deg. of freedom    30
 Full point group                 C1      NOp   1
 Rotational constants (GHZ):           8.8351935           4.1994033           2.9513406
 Standard basis: 6-311++G(d,p) (5D, 7F)
   159 basis functions,   243 primitive gaussians,   164 cartesian basis functions
    20 alpha electrons       20 beta electrons
       nuclear repulsion energy       181.5199837686 Hartrees.
 NAtoms=   12 NActive=   12 NUniq=   12 SFac= 1.00D+00 NAtFMM=   60 NAOKFM=F Big=F
 Integral buffers will be    131072 words long.
 Raffenetti 2 integral format.
 Two-electron integral symmetry is turned off.
 Standard density basis: Auto (5D, 7F)
   713 Density fitting functions
 Force inversion solution in PCM.
 ------------------------------------------------------------------------------
 Polarizable Continuum Model (PCM)
 =================================
 Model                : PCM.
 Atomic radii         : SMD-Coulomb.
 Polarization charges : Total charges.
 Charge compensation  : None.
 Solution method      : Matrix inversion.
 Cavity type          : VdW (van der Waals Surface) (Alpha=1.000).
 Cavity algorithm     : GePol (No added spheres)
                        Default sphere list used, NSphG=   12.
                        Lebedev-Laikov grids with approx.  5.0 points / Ang**2.
                        Smoothing algorithm: York/Karplus (Gamma=1.0000).
                        Polarization charges: spherical gaussians, with
                                              point-specific exponents (IZeta= 3).
                        Self-potential: point-specific (ISelfS= 7).
                        Self-field    : sphere-specific E.n sum rule (ISelfD= 2).
 1st derivatives      : Analytical E(r).r(x)/FMM algorithm (CHGder, D1EAlg=3).
                        Cavity 1st derivative terms included.
 2nd derivatives      : Analytical E(r).r(xy)/FMM algorithm (CHGder, D2EAlg=3).
                        Cavity 2nd derivative terms included.
 Solvent              : n,n-DiMethylFormamide, Eps=  37.219000 Eps(inf)=   2.046330
 ------------------------------------------------------------------------------
 Spheres list:
 ISph  on   Nord     Re0    Alpha      Xe            Ye            Ze
    1   O      1    2.2940  1.000      1.895578     -0.027819     -0.086459
    2   N      2    1.8900  1.000     -0.400918     -0.000567      0.032885
    3   C      3    1.8500  1.000     -0.594167      1.442395     -0.066325
    4   C      4    1.8500  1.000     -1.597611     -0.804735      0.036074
    5   C      5    1.8500  1.000      0.794764     -0.601134     -0.034823
    6   H      6    1.2000  1.000     -1.354005      1.748643      0.621976
    7   H      7    1.2000  1.000      0.322376      1.941990      0.168734
    8   H      8    1.2000  1.000     -2.214122     -0.576994      0.914240
    9   H      9    1.2000  1.000     -1.344303     -1.867098      0.056677
   10   H     10    1.2000  1.000     -2.204490     -0.599462     -0.855263
   11   H     11    1.2000  1.000      0.709036     -1.706404     -0.057947
   12   H     12    1.2000  1.000     -0.892575      1.694629     -1.062433
 ------------------------------------------------------------------------------
 ------------------------------------------------------------------------------
 Atomic radii for non-electrostatic terms: SMD-CDS.
 ------------------------------------------------------------------------------
 Nuclear repulsion after PCM non-electrostatic terms =      181.5192482248 Hartrees.
 One-electron integrals computed using PRISM.
 NBasis=   159 RedAO= T EigKep=  2.04D-04  NBF=   159
 NBsUse=   159 1.00D-06 EigRej= -1.00D+00 NBFU=   159
 NBasis=      159 NBas6D=      164 NTT=       12720   NTT6D=    13530
 NDBShl=      119 NDBF=        713 NDBF6D=      821  NNucDB=        0
 IDenFi=        2 ISolve=        0 FullAP=F BlkAPC=T NucTyp=        0
 TolInv= 1.00D-06 TolIt=  1.00D-10 IR12=0.
 FoFCou: FMM=F IPFlag=           0 FMFlag=           0 FMFlg1=           0
         NFxFlg=           0 DoJE=F BraDBF=T KetDBF=T FulRan=T
         wScrn=  0.000000 ICntrl=       600 IOpCl=  3 I1Cent=           6 NGrid=           0
         NMat0=    1 NMatS0=    821 NMatT0=    0 NMatD0=    1 NMtDS0=    0 NMtDT0=    0
 Symmetry not used in FoFCou.
 DBF EigKep=  1.07D-06 EigRej=  9.57D-07
 NDBF=    713  NBFD=   713
 NRank=   697 NBFDU=   697
 S*AI*S=  11.0337322071    
 ExpMin= 3.60D-02 ExpMax= 8.59D+03 ExpMxC= 1.30D+03 IAcc=3 IRadAn=         5 AccDes= 0.00D+00
 Harris functional with IExCor= 1009 and IRadAn=       5 diagonalized for initial guess.
 HarFok:  IExCor= 1009 AccDes= 0.00D+00 IRadAn=         5 IDoV= 1 UseB2=F ITyADJ=14
 ICtDFT=  3500011 ScaDFX=  1.000000  1.000000  1.000000  1.000000
 FoFCou: FMM=F IPFlag=           0 FMFlag=      100000 FMFlg1=           0
         NFxFlg=           0 DoJE=T BraDBF=F KetDBF=T FulRan=T
         wScrn=  0.000000 ICntrl=       500 IOpCl=  0 I1Cent=   200000004 NGrid=           0
         NMat0=    1 NMatS0=      1 NMatT0=    0 NMatD0=    1 NMtDS0=    0 NMtDT0=    0
 Symmetry not used in FoFCou.
 Requested convergence on RMS density matrix=1.00D-08 within  32 cycles.
 Requested convergence on MAX density matrix=1.00D-06.
 Requested convergence on             energy=1.00D-06.
 No special actions if energy rises.
 FoFCou: FMM=F IPFlag=           0 FMFlag=      100000 FMFlg1=           0
         NFxFlg=           0 DoJE=T BraDBF=T KetDBF=F FulRan=T
         wScrn=  0.000000 ICntrl=       500 IOpCl=  0 I1Cent=           5 NGrid=           0
         NMat0=    1 NMatS0=      1 NMatT0=    0 NMatD0=    1 NMtDS0=    0 NMtDT0=    0
 Symmetry not used in FoFCou.
 Inv3:  Mode=1 IEnd=     3276075.
 Iteration    1 A*A^-1 deviation from unit magnitude is 2.89D-15 for    909.
 Iteration    1 A*A^-1 deviation from orthogonality  is 1.73D-15 for    411    202.
 Iteration    1 A^-1*A deviation from unit magnitude is 3.66D-15 for    564.
 Iteration    1 A^-1*A deviation from orthogonality  is 3.14D-15 for    626    566.
 Error on total polarization charges =  0.02357
 SCF Done:  E(RM06L) =  -248.556639778     A.U. after   13 cycles
            NFock= 13  Conv=0.40D-08     -V/T= 2.0039
 SMD-CDS (non-electrostatic) energy       (kcal/mol) =      -0.46
 (included in total energy above)
 QCSCF skips out because SCF is already converged.
 DoSCS=F DFT=T ScalE2(SS,OS)=  1.000000  1.000000
 Range of M.O.s used for correlation:     1   159
 NBasis=   159 NAE=    20 NBE=    20 NFC=     0 NFV=     0
 NROrb=    159 NOA=    20 NOB=    20 NVA=   139 NVB=   139

 **** Warning!!: The largest alpha MO coefficient is  0.21209013D+02

 Symmetrizing basis deriv contribution to polar:
 IMax=3 JMax=2 DiffMx= 0.00D+00
 G2DrvN: will do    13 centers at a time, making    1 passes.
 Calling FoFCou, ICntrl=  3507 FMM=F I1Cent=   4 AccDes= 0.00D+00.
 NEqPCM:  Using equilibrium solvation (IEInf=0, Eps=  37.2190, EpsInf=   2.0463)
 G2PCM: DoFxE=T DoFxN=T DoGrad=T DoDP/DQ/DG/TGxP=FFFF NFrqRd=   0 IEInf=0 SqF1=F DoCFld=F IF1Alg=4.
 G2DrvN: will do    13 centers at a time, making    1 passes.
 Calling FoFCou, ICntrl=  3507 FMM=F I1Cent=1004 AccDes= 0.00D+00.
 End of G2Drv F.D. properties file   721 does not exist.
 End of G2Drv F.D. properties file   722 does not exist.
 End of G2Drv F.D. properties file   788 does not exist.
          IDoAtm=111111111111
 NEqPCM:  Using equilibrium solvation (IEInf=0, Eps=  37.2190, EpsInf=   2.0463)
          Differentiating once with respect to nuclear coordinates.
 FoFCou: FMM=F IPFlag=           0 FMFlag=      100000 FMFlg1=           0
         NFxFlg=           0 DoJE=F BraDBF=T KetDBF=F FulRan=T
         wScrn=  0.000000 ICntrl=       500 IOpCl=  0 I1Cent=           5 NGrid=           0
         NMat0=   39 NMatS0=     39 NMatT0=    0 NMatD0=   39 NMtDS0=    0 NMtDT0=    0
 Symmetry not used in FoFCou.
          There are    39 degrees of freedom in the 1st order CPHF.  IDoFFX=6 NUNeed=     0.
     33 vectors produced by pass  0 Test12= 7.13D-15 2.56D-09 XBig12= 1.40D-01 1.37D-01.
 AX will form    33 AO Fock derivatives at one time.
     33 vectors produced by pass  1 Test12= 7.13D-15 2.56D-09 XBig12= 2.71D-02 6.07D-02.
     33 vectors produced by pass  2 Test12= 7.13D-15 2.56D-09 XBig12= 5.79D-04 4.73D-03.
     33 vectors produced by pass  3 Test12= 7.13D-15 2.56D-09 XBig12= 7.14D-06 3.12D-04.
     33 vectors produced by pass  4 Test12= 7.13D-15 2.56D-09 XBig12= 3.92D-08 3.05D-05.
     29 vectors produced by pass  5 Test12= 7.13D-15 2.56D-09 XBig12= 1.03D-10 9.84D-07.
     12 vectors produced by pass  6 Test12= 7.13D-15 2.56D-09 XBig12= 1.48D-13 3.79D-08.
 InvSVY:  IOpt=1 It=  1 EMax= 1.67D-15
 Solved reduced A of dimension   206 with    33 vectors.
 End of Minotr F.D. properties file   721 does not exist.
 End of Minotr F.D. properties file   722 does not exist.
 End of Minotr F.D. properties file   788 does not exist.

 **********************************************************************

            Population analysis using the SCF Density.

 **********************************************************************

 Alpha  occ. eigenvalues --  -18.93017 -14.20886 -10.13310 -10.07503 -10.06900
 Alpha  occ. eigenvalues --   -0.99195  -0.90702  -0.69016  -0.65989  -0.53034
 Alpha  occ. eigenvalues --   -0.46851  -0.43684  -0.42701  -0.37312  -0.36537
 Alpha  occ. eigenvalues --   -0.35519  -0.34811  -0.33810  -0.22072  -0.21522
 Alpha virt. eigenvalues --   -0.00805  -0.00185   0.01707   0.02120   0.03216
 Alpha virt. eigenvalues --    0.04493   0.04711   0.05819   0.06575   0.07102
 Alpha virt. eigenvalues --    0.09100   0.10012   0.11340   0.12446   0.12491
 Alpha virt. eigenvalues --    0.13195   0.13492   0.13917   0.14848   0.16082
 Alpha virt. eigenvalues --    0.16496   0.16873   0.18833   0.19378   0.19626
 Alpha virt. eigenvalues --    0.21187   0.23323   0.23862   0.24890   0.27128
 Alpha virt. eigenvalues --    0.27599   0.28749   0.29182   0.30084   0.32636
 Alpha virt. eigenvalues --    0.34490   0.38655   0.40194   0.43435   0.44733
 Alpha virt. eigenvalues --    0.46692   0.47830   0.52783   0.54732   0.58241
 Alpha virt. eigenvalues --    0.58704   0.61226   0.62222   0.63521   0.65247
 Alpha virt. eigenvalues --    0.65728   0.69045   0.69582   0.71737   0.75407
 Alpha virt. eigenvalues --    0.83694   0.84812   0.88294   0.90325   0.98192
 Alpha virt. eigenvalues --    1.02595   1.04291   1.09349   1.10380   1.15338
 Alpha virt. eigenvalues --    1.18610   1.24219   1.25508   1.32384   1.40821
 Alpha virt. eigenvalues --    1.42721   1.45729   1.47948   1.53122   1.55462
 Alpha virt. eigenvalues --    1.56836   1.57686   1.58434   1.62643   1.66538
 Alpha virt. eigenvalues --    1.68997   1.71065   1.74181   1.77394   1.79024
 Alpha virt. eigenvalues --    1.83875   1.85559   1.89209   1.98126   2.05901
 Alpha virt. eigenvalues --    2.07689   2.08861   2.16831   2.19914   2.26405
 Alpha virt. eigenvalues --    2.37269   2.42496   2.44153   2.45469   2.46725
 Alpha virt. eigenvalues --    2.50513   2.52771   2.55995   2.59234   2.60074
 Alpha virt. eigenvalues --    2.62342   2.68223   2.69898   2.70569   2.72889
 Alpha virt. eigenvalues --    2.84877   2.89777   2.92141   2.94949   2.97513
 Alpha virt. eigenvalues --    3.01945   3.07973   3.37259   3.41241   3.52173
 Alpha virt. eigenvalues --    3.61137   3.67738   3.73428   3.75351   3.80649
 Alpha virt. eigenvalues --    3.84057   3.88441   4.04132   4.09653   4.96353
 Alpha virt. eigenvalues --    5.05021   5.16538   5.29327   5.86889  24.01740
 Alpha virt. eigenvalues --   24.06764  24.12219  35.72327  50.25951
          Condensed to atoms (all electrons):
               1          2          3          4          5          6
     1  O    8.212854  -0.184177  -0.024753   0.024075   0.437321  -0.000657
     2  N   -0.184177   7.107214   0.272901   0.170933   0.174938  -0.057126
     3  C   -0.024753   0.272901   4.961272  -0.059685  -0.071002   0.406227
     4  C    0.024075   0.170933  -0.059685   4.989015  -0.045881   0.012820
     5  C    0.437321   0.174938  -0.071002  -0.045881   4.972688  -0.000749
     6  H   -0.000657  -0.057126   0.406227   0.012820  -0.000749   0.596190
     7  H    0.029100  -0.079433   0.400115  -0.002300   0.020721  -0.031468
     8  H    0.000468  -0.060020   0.000999   0.406670  -0.003072   0.001937
     9  H    0.002409  -0.052932  -0.005720   0.425114   0.010796   0.000504
    10  H   -0.000008  -0.058080   0.027140   0.374715  -0.011286  -0.001735
    11  H   -0.016018  -0.265373  -0.010773   0.027743   0.405734  -0.003262
    12  H   -0.004490  -0.042955   0.401975  -0.000543  -0.013568  -0.056574
               7          8          9         10         11         12
     1  O    0.029100   0.000468   0.002409  -0.000008  -0.016018  -0.004490
     2  N   -0.079433  -0.060020  -0.052932  -0.058080  -0.265373  -0.042955
     3  C    0.400115   0.000999  -0.005720   0.027140  -0.010773   0.401975
     4  C   -0.002300   0.406670   0.425114   0.374715   0.027743  -0.000543
     5  C    0.020721  -0.003072   0.010796  -0.011286   0.405734  -0.013568
     6  H   -0.031468   0.001937   0.000504  -0.001735  -0.003262  -0.056574
     7  H    0.561976   0.000586  -0.006731   0.000187   0.011209  -0.032707
     8  H    0.000586   0.621464  -0.032045  -0.074549   0.001797  -0.003817
     9  H   -0.006731  -0.032045   0.574834  -0.030129  -0.013478   0.002402
    10  H    0.000187  -0.074549  -0.030129   0.639121   0.000687   0.004764
    11  H    0.011209   0.001797  -0.013478   0.000687   0.778024  -0.003849
    12  H   -0.032707  -0.003817   0.002402   0.004764  -0.003849   0.593261
 Mulliken charges:
               1
     1  O   -0.476124
     2  N    0.074109
     3  C   -0.298697
     4  C   -0.322675
     5  C    0.123359
     6  H    0.133893
     7  H    0.128744
     8  H    0.139583
     9  H    0.124975
    10  H    0.129172
    11  H    0.087560
    12  H    0.156101
 Sum of Mulliken charges =  -0.00000
 Mulliken charges with hydrogens summed into heavy atoms:
               1
     1  O   -0.476124
     2  N    0.074109
     3  C    0.120041
     4  C    0.071055
     5  C    0.210919
 APT charges:
               1
     1  O   -0.370810
     2  N    0.183431
     3  C   -1.027357
     4  C   -1.153290
     5  C   -0.277217
     6  H    0.420557
     7  H    0.324642
     8  H    0.410310
     9  H    0.372559
    10  H    0.394364
    11  H    0.344954
    12  H    0.377857
 Sum of APT charges =  -0.00000
 APT charges with hydrogens summed into heavy atoms:
               1
     1  O   -0.370810
     2  N    0.183431
     3  C    0.095698
     4  C    0.023944
     5  C    0.067737
 Electronic spatial extent (au):  <R**2>=            443.9770
 Charge=              0.0000 electrons
 Dipole moment (field-independent basis, Debye):
    X=             -5.5350    Y=             -0.4919    Z=              0.0588  Tot=              5.5572
 Quadrupole moment (field-independent basis, Debye-Ang):
   XX=            -37.8438   YY=            -26.7607   ZZ=            -30.8177
   XY=             -0.6265   XZ=              0.3838   YZ=              0.0086
 Traceless Quadrupole moment (field-independent basis, Debye-Ang):
   XX=             -6.0364   YY=              5.0467   ZZ=              0.9897
   XY=             -0.6265   XZ=              0.3838   YZ=              0.0086
 Octapole moment (field-independent basis, Debye-Ang**2):
  XXX=            -16.1928  YYY=             -2.2060  ZZZ=              1.8328  XYY=              1.5593
  XXY=             -1.0434  XXZ=              2.3358  XZZ=              1.4238  YZZ=              0.4300
  YYZ=              0.9032  XYZ=              0.1090
 Hexadecapole moment (field-independent basis, Debye-Ang**3):
 XXXX=           -372.5240 YYYY=           -182.8146 ZZZZ=            -43.0771 XXXY=              2.6534
 XXXZ=              4.6777 YYYX=             -0.8031 YYYZ=              2.7799 ZZZX=              4.4276
 ZZZY=              1.6254 XXYY=            -85.7671 XXZZ=            -60.6221 YYZZ=            -39.9732
 XXYZ=              1.5191 YYXZ=              1.1645 ZZXY=             -1.3430
 N-N= 1.815192482248D+02 E-N=-9.433183183804D+02  KE= 2.475797600304D+02
  Exact polarizability:       0.000       0.000       0.000       0.000       0.000       0.000
 Approx polarizability:     103.842      -0.257      70.635      -1.586      -0.606      53.446
 D2PCM: PCM CHGder 2nd derivatives, FixD1E=F FixD2E=F DoIter=F DoCFld=F I1PDM=0
 Calling FoFJK, ICntrl=    100527 FMM=F ISym2X=0 I1Cent= 4 IOpClX= 0 NMat=1 NMatS=1 NMatT=0.
 -------------------------------------------------------------------
 Center     Atomic                   Forces (Hartrees/Bohr)
 Number     Number              X              Y              Z
 -------------------------------------------------------------------
      1        8          -0.019007832   -0.009109758    0.000988045
      2        7          -0.007612440   -0.000105133    0.000336516
      3        6           0.009726104   -0.021201937    0.003595966
      4        6          -0.008266444    0.000170697    0.000078596
      5        6           0.027622818    0.012174718   -0.003246408
      6        1          -0.010666573    0.004125725    0.009365472
      7        1           0.011818165    0.005931207    0.002423712
      8        1           0.000953192   -0.000399240   -0.000715278
      9        1           0.000292197    0.001750281   -0.000511399
     10        1           0.000821446   -0.001154512    0.000608756
     11        1          -0.000311357    0.002163118    0.002152837
     12        1          -0.005369276    0.005654836   -0.015076814
 -------------------------------------------------------------------
 Cartesian Forces:  Max     0.027622818 RMS     0.008747484
 FormGI is forming the generalized inverse of G from B-inverse, IUseBI=4.

 GradGradGradGradGradGradGradGradGradGradGradGradGradGradGradGradGradGrad
 Berny optimization.
 Internal  Forces:  Max     0.021086186 RMS     0.005745398
 Search for a local minimum.
 Step number   1 out of a maximum of   55
 All quantities printed in internal units (Hartrees-Bohrs-Radians)
 Mixed Optimization -- RFO/linear search
 Second derivative matrix not updated -- analytic derivatives used.
 ITU=  0
     Eigenvalues ---    0.00084   0.00197   0.00558   0.01932   0.05764
     Eigenvalues ---    0.05855   0.05890   0.05961   0.08005   0.12460
     Eigenvalues ---    0.12859   0.14353   0.15000   0.16742   0.17173
     Eigenvalues ---    0.17642   0.20281   0.22563   0.24745   0.31056
     Eigenvalues ---    0.32564   0.32818   0.34122   0.34926   0.38328
     Eigenvalues ---    0.38691   0.39107   0.39174   0.49045   0.72825
 RFO step:  Lambda=-4.40379595D-03 EMin= 8.38089404D-04
 Linear search not attempted -- first point.
 Iteration  1 RMS(Cart)=  0.04255787 RMS(Int)=  0.00122198
 Iteration  2 RMS(Cart)=  0.00144711 RMS(Int)=  0.00029843
 Iteration  3 RMS(Cart)=  0.00000159 RMS(Int)=  0.00029843
 Iteration  4 RMS(Cart)=  0.00000000 RMS(Int)=  0.00029843
 Variable       Old X    -DE/DX   Delta X   Delta X   Delta X     New X
                                 (Linear)    (Quad)   (Total)
    R1        2.34748  -0.02109   0.00000  -0.03467  -0.03467   2.31281
    R2        2.75753  -0.00618   0.00000  -0.02484  -0.02484   2.73269
    R3        2.72460   0.00494   0.00000   0.00603   0.00603   2.73063
    R4        2.53175   0.00507   0.00000   0.01791   0.01791   2.54966
    R5        2.02201   0.01478   0.00000   0.04010   0.04010   2.06210
    R6        2.02201   0.01342   0.00000   0.03391   0.03391   2.05592
    R7        2.02201   0.01687   0.00000   0.04495   0.04495   2.06696
    R8        2.07279  -0.00119   0.00000  -0.00446  -0.00446   2.06833
    R9        2.06422  -0.00164   0.00000  -0.00297  -0.00297   2.06125
   R10        2.07433  -0.00117   0.00000  -0.00453  -0.00453   2.06980
   R11        2.09539  -0.00218   0.00000  -0.00263  -0.00263   2.09276
    A1        2.02837   0.00204   0.00000   0.02183   0.02167   2.05004
    A2        2.16281  -0.01161   0.00000  -0.05339  -0.05370   2.10911
    A3        2.08385   0.00960   0.00000   0.03591   0.03580   2.11965
    A4        1.91063  -0.00051   0.00000   0.00759   0.00754   1.91817
    A5        1.91063  -0.00085   0.00000  -0.00487  -0.00487   1.90576
    A6        1.91063   0.00275   0.00000   0.02719   0.02713   1.93776
    A7        1.91063   0.00043   0.00000  -0.00136  -0.00135   1.90928
    A8        1.91063  -0.00113   0.00000  -0.01906  -0.01917   1.89146
    A9        1.91063  -0.00070   0.00000  -0.00949  -0.00950   1.90113
   A10        1.93102   0.00008   0.00000   0.00061   0.00059   1.93160
   A11        1.92839  -0.00137   0.00000  -0.01503  -0.01507   1.91332
   A12        1.93134   0.00085   0.00000   0.00298   0.00294   1.93428
   A13        1.89354   0.00046   0.00000   0.00501   0.00499   1.89853
   A14        1.87604   0.00035   0.00000   0.01232   0.01229   1.88833
   A15        1.90223  -0.00034   0.00000  -0.00519  -0.00524   1.89699
   A16        2.19701  -0.00070   0.00000  -0.00083  -0.00094   2.19607
   A17        2.12667   0.00096   0.00000   0.01335   0.01324   2.13991
   A18        1.95939  -0.00023   0.00000  -0.01212  -0.01223   1.94716
    D1        0.81771  -0.00018   0.00000   0.02503   0.02551   0.84322
    D2        2.91210  -0.00048   0.00000   0.02504   0.02546   2.93756
    D3       -1.27669  -0.00017   0.00000   0.02708   0.02747  -1.24922
    D4       -2.46205   0.00101   0.00000   0.06502   0.06463  -2.39742
    D5       -0.36765   0.00071   0.00000   0.06502   0.06459  -0.30307
    D6        1.72674   0.00102   0.00000   0.06707   0.06660   1.79334
    D7       -1.09971  -0.00072   0.00000   0.01465   0.01528  -1.08443
    D8        3.08614  -0.00045   0.00000   0.01779   0.01843   3.10457
    D9        0.97769   0.00031   0.00000   0.03230   0.03292   1.01062
   D10        2.17344  -0.00010   0.00000  -0.01597  -0.01660   2.15683
   D11        0.07610   0.00016   0.00000  -0.01283  -0.01345   0.06265
   D12       -2.03234   0.00093   0.00000   0.00168   0.00104  -2.03130
   D13        0.10156  -0.00024   0.00000  -0.05328  -0.05299   0.04857
   D14       -3.02342  -0.00230   0.00000  -0.07978  -0.07950  -3.10292
   D15        3.10086   0.00036   0.00000  -0.01344  -0.01372   3.08713
   D16       -0.02412  -0.00170   0.00000  -0.03994  -0.04023  -0.06435
         Item               Value     Threshold  Converged?
 Maximum Force            0.021086     0.000450     NO 
 RMS     Force            0.005745     0.000300     NO 
 Maximum Displacement     0.109152     0.001800     NO 
 RMS     Displacement     0.043126     0.001200     NO 
 Predicted change in Energy=-2.293429D-03
 GradGradGradGradGradGradGradGradGradGradGradGradGradGradGradGradGradGrad

                          Input orientation:                          
 ---------------------------------------------------------------------
 Center     Atomic      Atomic             Coordinates (Angstroms)
 Number     Number       Type             X           Y           Z
 ---------------------------------------------------------------------
      1          8           0        1.867401    0.018798   -0.099963
      2          7           0       -0.421052   -0.013614    0.015429
      3          6           0       -0.576886    1.421795   -0.064961
      4          6           0       -1.623474   -0.814922    0.024074
      5          6           0        0.802267   -0.580499   -0.034924
      6          1           0       -1.316550    1.756570    0.664135
      7          1           0        0.378642    1.897610    0.145249
      8          1           0       -2.235506   -0.583833    0.901556
      9          1           0       -1.358607   -1.872738    0.049435
     10          1           0       -2.224463   -0.624974   -0.871694
     11          1           0        0.740482   -1.685669   -0.000186
     12          1           0       -0.912693    1.724920   -1.060813
 ---------------------------------------------------------------------
                    Distance matrix (angstroms):
                    1          2          3          4          5
     1  O    0.000000
     2  N    2.291589   0.000000
     3  C    2.818539   1.446079   0.000000
     4  C    3.591195   1.444987   2.471068   0.000000
     5  C    1.223886   1.349223   2.431491   2.437756   0.000000
     6  H    3.706917   2.087172   1.091219   2.667668   3.231092
     7  H    2.409661   2.075847   1.087944   3.373571   2.520505
     8  H    4.266151   2.098241   2.776278   1.094513   3.178847
     9  H    3.742640   2.082429   3.387938   1.090768   2.519201
    10  H    4.213473   2.100724   2.748561   1.095293   3.140582
    11  H    2.045754   2.035970   3.375795   2.519341   1.107441
    12  H    3.400442   2.102976   1.093788   2.851839   3.050982
                    6          7          8          9         10
     6  H    0.000000
     7  H    1.778429   0.000000
     8  H    2.525537   3.682843   0.000000
     9  H    3.681237   4.152438   1.776609   0.000000
    10  H    2.975706   3.764805   1.773762   1.776261   0.000000
    11  H    4.064691   3.604438   3.299044   2.107992   3.267338
    12  H    1.771877   1.775374   3.306216   3.791390   2.697871
                   11         12
    11  H    0.000000
    12  H    3.935738   0.000000
 Symmetry turned off by external request.
 Stoichiometry    C3H7NO
 Framework group  C1[X(C3H7NO)]
 Deg. of freedom    30
 Full point group                 C1      NOp   1
 Rotational constants (GHZ):           8.9743927           4.2070781           2.9718182
 Standard basis: 6-311++G(d,p) (5D, 7F)
   159 basis functions,   243 primitive gaussians,   164 cartesian basis functions
    20 alpha electrons       20 beta electrons
       nuclear repulsion energy       181.8966449626 Hartrees.
 NAtoms=   12 NActive=   12 NUniq=   12 SFac= 1.00D+00 NAtFMM=   60 NAOKFM=F Big=F
 Integral buffers will be    131072 words long.
 Raffenetti 2 integral format.
 Two-electron integral symmetry is turned off.
 Standard density basis: Auto (5D, 7F)
   713 Density fitting functions
 ------------------------------------------------------------------------------
 Polarizable Continuum Model (PCM)
 =================================
 Model                : PCM.
 Atomic radii         : SMD-Coulomb.
 Polarization charges : Total charges.
 Charge compensation  : None.
 Solution method      : Matrix inversion.
 Cavity type          : VdW (van der Waals Surface) (Alpha=1.000).
 Cavity algorithm     : GePol (No added spheres)
                        Default sphere list used, NSphG=   12.
                        Lebedev-Laikov grids with approx.  5.0 points / Ang**2.
                        Smoothing algorithm: York/Karplus (Gamma=1.0000).
                        Polarization charges: spherical gaussians, with
                                              point-specific exponents (IZeta= 3).
                        Self-potential: point-specific (ISelfS= 7).
                        Self-field    : sphere-specific E.n sum rule (ISelfD= 2).
 1st derivatives      : Analytical E(r).r(x)/FMM algorithm (CHGder, D1EAlg=3).
                        Cavity 1st derivative terms included.
 Solvent              : n,n-DiMethylFormamide, Eps=  37.219000 Eps(inf)=   2.046330
 ------------------------------------------------------------------------------
 Spheres list:
 ISph  on   Nord     Re0    Alpha      Xe            Ye            Ze
    1   O      1    2.2940  1.000      1.867401      0.018798     -0.099963
    2   N      2    1.8900  1.000     -0.421052     -0.013614      0.015429
    3   C      3    1.8500  1.000     -0.576886      1.421795     -0.064961
    4   C      4    1.8500  1.000     -1.623474     -0.814922      0.024074
    5   C      5    1.8500  1.000      0.802267     -0.580499     -0.034924
    6   H      6    1.2000  1.000     -1.316550      1.756570      0.664135
    7   H      7    1.2000  1.000      0.378642      1.897610      0.145249
    8   H      8    1.2000  1.000     -2.235506     -0.583833      0.901556
    9   H      9    1.2000  1.000     -1.358607     -1.872738      0.049435
   10   H     10    1.2000  1.000     -2.224463     -0.624974     -0.871694
   11   H     11    1.2000  1.000      0.740482     -1.685669     -0.000186
   12   H     12    1.2000  1.000     -0.912693      1.724920     -1.060813
 ------------------------------------------------------------------------------
 ------------------------------------------------------------------------------
 Atomic radii for non-electrostatic terms: SMD-CDS.
 ------------------------------------------------------------------------------
 Nuclear repulsion after PCM non-electrostatic terms =      181.8959233255 Hartrees.
 One-electron integrals computed using PRISM.
 NBasis=   159 RedAO= T EigKep=  2.02D-04  NBF=   159
 NBsUse=   159 1.00D-06 EigRej= -1.00D+00 NBFU=   159
 NBasis=      159 NBas6D=      164 NTT=       12720   NTT6D=    13530
 NDBShl=      119 NDBF=        713 NDBF6D=      821  NNucDB=        0
 IDenFi=        2 ISolve=        0 FullAP=F BlkAPC=T NucTyp=        0
 TolInv= 1.00D-06 TolIt=  1.00D-10 IR12=0.
 FoFCou: FMM=F IPFlag=           0 FMFlag=           0 FMFlg1=           0
         NFxFlg=           0 DoJE=F BraDBF=T KetDBF=T FulRan=T
         wScrn=  0.000000 ICntrl=       600 IOpCl=  3 I1Cent=           6 NGrid=           0
         NMat0=    1 NMatS0=    821 NMatT0=    0 NMatD0=    1 NMtDS0=    0 NMtDT0=    0
 Symmetry not used in FoFCou.
 DBF EigKep=  1.00D-06 EigRej=  9.08D-07
 NDBF=    713  NBFD=   713
 NRank=   698 NBFDU=   698
 S*AI*S=  11.0289103664    
 Initial guess from the checkpoint file:  "dmf_0.chk"
 B after Tr=    -0.015048    0.010160   -0.012117
         Rot=    0.999994   -0.001011   -0.000380   -0.003317 Ang=  -0.40 deg.
 Recovered     1 saved fitting vectors from chk file.
 ExpMin= 3.60D-02 ExpMax= 8.59D+03 ExpMxC= 1.30D+03 IAcc=3 IRadAn=         5 AccDes= 0.00D+00
 Harris functional with IExCor= 1009 and IRadAn=       5 diagonalized for initial guess.
 HarFok:  IExCor= 1009 AccDes= 0.00D+00 IRadAn=         5 IDoV= 1 UseB2=F ITyADJ=14
 ICtDFT=  3500011 ScaDFX=  1.000000  1.000000  1.000000  1.000000
 FoFCou: FMM=F IPFlag=           0 FMFlag=      100000 FMFlg1=           0
         NFxFlg=           0 DoJE=T BraDBF=F KetDBF=T FulRan=T
         wScrn=  0.000000 ICntrl=       500 IOpCl=  0 I1Cent=   200000004 NGrid=           0
         NMat0=    1 NMatS0=      1 NMatT0=    0 NMatD0=    1 NMtDS0=    0 NMtDT0=    0
 Symmetry not used in FoFCou.
 Requested convergence on RMS density matrix=1.00D-08 within  32 cycles.
 Requested convergence on MAX density matrix=1.00D-06.
 Requested convergence on             energy=1.00D-06.
 No special actions if energy rises.
 FoFCou: FMM=F IPFlag=           0 FMFlag=      100000 FMFlg1=           0
         NFxFlg=           0 DoJE=T BraDBF=T KetDBF=F FulRan=T
         wScrn=  0.000000 ICntrl=       500 IOpCl=  0 I1Cent=           5 NGrid=           0
         NMat0=    1 NMatS0=      1 NMatT0=    0 NMatD0=    1 NMtDS0=    0 NMtDT0=    0
 Symmetry not used in FoFCou.
 Inv3:  Mode=1 IEnd=     3301203.
 Iteration    1 A*A^-1 deviation from unit magnitude is 3.55D-15 for    733.
 Iteration    1 A*A^-1 deviation from orthogonality  is 1.33D-15 for    838    185.
 Iteration    1 A^-1*A deviation from unit magnitude is 3.00D-15 for    551.
 Iteration    1 A^-1*A deviation from orthogonality  is 3.29D-15 for    596    565.
 Error on total polarization charges =  0.02409
 SCF Done:  E(RM06L) =  -248.558931598     A.U. after   11 cycles
            NFock= 11  Conv=0.42D-08     -V/T= 2.0040
 SMD-CDS (non-electrostatic) energy       (kcal/mol) =      -0.45
 (included in total energy above)
 QCSCF skips out because SCF is already converged.
 D1PCM: PCM CHGder 1st derivatives, ID1Alg=3 FixD1E=F DoIter=F DoCFld=F I1PDM=0.
 Calling FoFJK, ICntrl=      2527 FMM=F ISym2X=0 I1Cent= 4 IOpClX= 0 NMat=1 NMatS=1 NMatT=0.
 -------------------------------------------------------------------
 Center     Atomic                   Forces (Hartrees/Bohr)
 Number     Number              X              Y              Z
 -------------------------------------------------------------------
      1        8           0.001185985    0.000453538   -0.000208933
      2        7          -0.000205981    0.000025062   -0.000757706
      3        6           0.000288316   -0.000715435    0.000725263
      4        6          -0.000418468    0.000078498   -0.000123924
      5        6          -0.000331305   -0.001004720    0.000550463
      6        1          -0.000650487    0.000370760    0.000824698
      7        1           0.000628746    0.000365618   -0.000088227
      8        1           0.000013876   -0.000006037    0.000011359
      9        1          -0.000023977    0.000009343    0.000011335
     10        1           0.000061104   -0.000086156   -0.000051197
     11        1           0.000095344    0.000053880    0.000202577
     12        1          -0.000643152    0.000455649   -0.001095708
 -------------------------------------------------------------------
 Cartesian Forces:  Max     0.001185985 RMS     0.000491037

 GradGradGradGradGradGradGradGradGradGradGradGradGradGradGradGradGradGrad
 Berny optimization.
 Using GEDIIS/GDIIS optimizer.
 FormGI is forming the generalized inverse of G from B-inverse, IUseBI=4.
 Internal  Forces:  Max     0.001317814 RMS     0.000413340
 Search for a local minimum.
 Step number   2 out of a maximum of   55
 All quantities printed in internal units (Hartrees-Bohrs-Radians)
 Mixed Optimization -- En-DIIS/RFO-DIIS
 Update second derivatives using D2CorX and points    1    2
 DE= -2.29D-03 DEPred=-2.29D-03 R= 9.99D-01
 TightC=F SS=  1.41D+00  RLast= 2.04D-01 DXNew= 5.0454D-01 6.1169D-01
 Trust test= 9.99D-01 RLast= 2.04D-01 DXMaxT set to 5.05D-01
 ITU=  1  0
 Use linear search instead of GDIIS.
     Eigenvalues ---    0.00084   0.00197   0.00558   0.01941   0.05764
     Eigenvalues ---    0.05854   0.05890   0.05961   0.08009   0.12442
     Eigenvalues ---    0.12862   0.14353   0.15246   0.16754   0.17164
     Eigenvalues ---    0.17638   0.20533   0.22542   0.24768   0.31056
     Eigenvalues ---    0.32563   0.32818   0.34122   0.34854   0.37271
     Eigenvalues ---    0.38336   0.38763   0.39271   0.48838   0.74271
 RFO step:  Lambda=-2.70358775D-04 EMin= 8.37607598D-04
 Quartic linear search produced a step of  0.03954.
 Iteration  1 RMS(Cart)=  0.08171059 RMS(Int)=  0.00647880
 Iteration  2 RMS(Cart)=  0.00699222 RMS(Int)=  0.00015089
 Iteration  3 RMS(Cart)=  0.00004407 RMS(Int)=  0.00014623
 Iteration  4 RMS(Cart)=  0.00000000 RMS(Int)=  0.00014623
 Variable       Old X    -DE/DX   Delta X   Delta X   Delta X     New X
                                 (Linear)    (Quad)   (Total)
    R1        2.31281   0.00126  -0.00137   0.00282   0.00145   2.31426
    R2        2.73269   0.00049  -0.00098  -0.00074  -0.00172   2.73097
    R3        2.73063   0.00031   0.00024  -0.00029  -0.00005   2.73058
    R4        2.54966   0.00105   0.00071   0.00121   0.00192   2.55158
    R5        2.06210   0.00111   0.00159   0.00349   0.00508   2.06718
    R6        2.05592   0.00070   0.00134   0.00009   0.00143   2.05735
    R7        2.06696   0.00132   0.00178   0.00129   0.00307   2.07003
    R8        2.06833   0.00000  -0.00018   0.00060   0.00042   2.06875
    R9        2.06125  -0.00002  -0.00012   0.00013   0.00001   2.06126
   R10        2.06980  -0.00001  -0.00018  -0.00019  -0.00037   2.06944
   R11        2.09276  -0.00005  -0.00010  -0.00044  -0.00055   2.09221
    A1        2.05004  -0.00053   0.00086  -0.00688  -0.00655   2.04349
    A2        2.10911   0.00054  -0.00212   0.01197   0.00932   2.11843
    A3        2.11965   0.00001   0.00142   0.00000   0.00089   2.12054
    A4        1.91817  -0.00004   0.00030   0.00706   0.00737   1.92554
    A5        1.90576   0.00010  -0.00019  -0.00352  -0.00371   1.90205
    A6        1.93776   0.00015   0.00107  -0.00569  -0.00462   1.93314
    A7        1.90928  -0.00002  -0.00005   0.00014   0.00009   1.90937
    A8        1.89146  -0.00011  -0.00076  -0.00205  -0.00281   1.88866
    A9        1.90113  -0.00009  -0.00038   0.00413   0.00374   1.90487
   A10        1.93160  -0.00001   0.00002  -0.00012  -0.00010   1.93150
   A11        1.91332   0.00001  -0.00060   0.00137   0.00077   1.91409
   A12        1.93428   0.00001   0.00012  -0.00158  -0.00146   1.93281
   A13        1.89853  -0.00002   0.00020  -0.00032  -0.00013   1.89841
   A14        1.88833   0.00005   0.00049  -0.00001   0.00047   1.88881
   A15        1.89699  -0.00005  -0.00021   0.00068   0.00047   1.89746
   A16        2.19607   0.00024  -0.00004   0.00371   0.00367   2.19974
   A17        2.13991  -0.00020   0.00052  -0.00180  -0.00128   2.13862
   A18        1.94716  -0.00003  -0.00048  -0.00186  -0.00235   1.94481
    D1        0.84322   0.00010   0.00101   0.15324   0.15424   0.99745
    D2        2.93756   0.00011   0.00101   0.15555   0.15654   3.09410
    D3       -1.24922   0.00016   0.00109   0.15483   0.15591  -1.09330
    D4       -2.39742   0.00025   0.00256   0.21059   0.21316  -2.18426
    D5       -0.30307   0.00026   0.00255   0.21290   0.21546  -0.08761
    D6        1.79334   0.00031   0.00263   0.21218   0.21483   2.00817
    D7       -1.08443   0.00010   0.00060   0.02356   0.02407  -1.06036
    D8        3.10457   0.00011   0.00073   0.02317   0.02380   3.12837
    D9        1.01062   0.00016   0.00130   0.02244   0.02364   1.03426
   D10        2.15683  -0.00009  -0.00066  -0.03487  -0.03543   2.12140
   D11        0.06265  -0.00007  -0.00053  -0.03527  -0.03571   0.02695
   D12       -2.03130  -0.00003   0.00004  -0.03600  -0.03586  -2.06716
   D13        0.04857  -0.00021  -0.00210  -0.02933  -0.03156   0.01701
   D14       -3.10292  -0.00026  -0.00314  -0.02384  -0.02712  -3.13004
   D15        3.08713  -0.00008  -0.00054   0.02998   0.02957   3.11670
   D16       -0.06435  -0.00013  -0.00159   0.03546   0.03401  -0.03034
         Item               Value     Threshold  Converged?
 Maximum Force            0.001318     0.000450     NO 
 RMS     Force            0.000413     0.000300     NO 
 Maximum Displacement     0.294985     0.001800     NO 
 RMS     Displacement     0.085097     0.001200     NO 
 Predicted change in Energy=-1.697124D-04
 GradGradGradGradGradGradGradGradGradGradGradGradGradGradGradGradGradGrad

                          Input orientation:                          
 ---------------------------------------------------------------------
 Center     Atomic      Atomic             Coordinates (Angstroms)
 Number     Number       Type             X           Y           Z
 ---------------------------------------------------------------------
      1          8           0        1.877089    0.013069   -0.021491
      2          7           0       -0.418028   -0.013411   -0.006772
      3          6           0       -0.581542    1.421243   -0.066309
      4          6           0       -1.621384   -0.813310   -0.008063
      5          6           0        0.806787   -0.581658    0.001425
      6          1           0       -1.200129    1.768052    0.766579
      7          1           0        0.398479    1.891973   -0.009379
      8          1           0       -2.243637   -0.576553    0.860957
      9          1           0       -1.358887   -1.871477    0.026030
     10          1           0       -2.210414   -0.626329   -0.912122
     11          1           0        0.740022   -1.686193    0.037899
     12          1           0       -1.068792    1.718039   -1.001418
 ---------------------------------------------------------------------
                    Distance matrix (angstroms):
                    1          2          3          4          5
     1  O    0.000000
     2  N    2.295317   0.000000
     3  C    2.833695   1.445170   0.000000
     4  C    3.594773   1.444959   2.465338   0.000000
     5  C    1.224651   1.350239   2.437962   2.439215   0.000000
     6  H    3.629090   2.093649   1.093906   2.727812   3.183444
     7  H    2.390965   2.072964   1.088701   3.376153   2.507127
     8  H    4.255203   2.098316   2.759270   1.094737   3.169213
     9  H    3.745038   2.082955   3.384494   1.090772   2.520791
    10  H    4.231989   2.099518   2.749760   1.095099   3.152788
    11  H    2.045468   2.035012   3.378395   2.517990   1.107152
    12  H    3.541947   2.100175   1.095413   2.774859   3.132427
                    6          7          8          9         10
     6  H    0.000000
     7  H    1.781296   0.000000
     8  H    2.568071   3.719124   0.000000
     9  H    3.717498   4.153691   1.776714   0.000000
    10  H    3.093828   3.736726   1.774088   1.776406   0.000000
    11  H    4.028271   3.594741   3.288001   2.107105   3.275809
    12  H    1.773574   1.779685   3.180229   3.744921   2.609088
                   11         12
    11  H    0.000000
    12  H    3.992591   0.000000
 Symmetry turned off by external request.
 Stoichiometry    C3H7NO
 Framework group  C1[X(C3H7NO)]
 Deg. of freedom    30
 Full point group                 C1      NOp   1
 Rotational constants (GHZ):           8.9811143           4.1904445           2.9636976
 Standard basis: 6-311++G(d,p) (5D, 7F)
   159 basis functions,   243 primitive gaussians,   164 cartesian basis functions
    20 alpha electrons       20 beta electrons
       nuclear repulsion energy       181.7766353901 Hartrees.
 NAtoms=   12 NActive=   12 NUniq=   12 SFac= 1.00D+00 NAtFMM=   60 NAOKFM=F Big=F
 Integral buffers will be    131072 words long.
 Raffenetti 2 integral format.
 Two-electron integral symmetry is turned off.
 Standard density basis: Auto (5D, 7F)
   713 Density fitting functions
 ------------------------------------------------------------------------------
 Polarizable Continuum Model (PCM)
 =================================
 Model                : PCM.
 Atomic radii         : SMD-Coulomb.
 Polarization charges : Total charges.
 Charge compensation  : None.
 Solution method      : Matrix inversion.
 Cavity type          : VdW (van der Waals Surface) (Alpha=1.000).
 Cavity algorithm     : GePol (No added spheres)
                        Default sphere list used, NSphG=   12.
                        Lebedev-Laikov grids with approx.  5.0 points / Ang**2.
                        Smoothing algorithm: York/Karplus (Gamma=1.0000).
                        Polarization charges: spherical gaussians, with
                                              point-specific exponents (IZeta= 3).
                        Self-potential: point-specific (ISelfS= 7).
                        Self-field    : sphere-specific E.n sum rule (ISelfD= 2).
 1st derivatives      : Analytical E(r).r(x)/FMM algorithm (CHGder, D1EAlg=3).
                        Cavity 1st derivative terms included.
 Solvent              : n,n-DiMethylFormamide, Eps=  37.219000 Eps(inf)=   2.046330
 ------------------------------------------------------------------------------
 Spheres list:
 ISph  on   Nord     Re0    Alpha      Xe            Ye            Ze
    1   O      1    2.2940  1.000      1.877089      0.013069     -0.021491
    2   N      2    1.8900  1.000     -0.418028     -0.013411     -0.006772
    3   C      3    1.8500  1.000     -0.581542      1.421243     -0.066309
    4   C      4    1.8500  1.000     -1.621384     -0.813310     -0.008063
    5   C      5    1.8500  1.000      0.806787     -0.581658      0.001425
    6   H      6    1.2000  1.000     -1.200129      1.768052      0.766579
    7   H      7    1.2000  1.000      0.398479      1.891973     -0.009379
    8   H      8    1.2000  1.000     -2.243637     -0.576553      0.860957
    9   H      9    1.2000  1.000     -1.358887     -1.871477      0.026030
   10   H     10    1.2000  1.000     -2.210414     -0.626329     -0.912122
   11   H     11    1.2000  1.000      0.740022     -1.686193      0.037899
   12   H     12    1.2000  1.000     -1.068792      1.718039     -1.001418
 ------------------------------------------------------------------------------
 ------------------------------------------------------------------------------
 Atomic radii for non-electrostatic terms: SMD-CDS.
 ------------------------------------------------------------------------------
 Nuclear repulsion after PCM non-electrostatic terms =      181.7759397162 Hartrees.
 One-electron integrals computed using PRISM.
 NBasis=   159 RedAO= T EigKep=  1.89D-04  NBF=   159
 NBsUse=   159 1.00D-06 EigRej= -1.00D+00 NBFU=   159
 NBasis=      159 NBas6D=      164 NTT=       12720   NTT6D=    13530
 NDBShl=      119 NDBF=        713 NDBF6D=      821  NNucDB=        0
 IDenFi=        2 ISolve=        0 FullAP=F BlkAPC=T NucTyp=        0
 TolInv= 1.00D-06 TolIt=  1.00D-10 IR12=0.
 FoFCou: FMM=F IPFlag=           0 FMFlag=           0 FMFlg1=           0
         NFxFlg=           0 DoJE=F BraDBF=T KetDBF=T FulRan=T
         wScrn=  0.000000 ICntrl=       600 IOpCl=  3 I1Cent=           6 NGrid=           0
         NMat0=    1 NMatS0=    821 NMatT0=    0 NMatD0=    1 NMtDS0=    0 NMtDT0=    0
 Symmetry not used in FoFCou.
 DBF EigKep=  1.06D-06 EigRej=  9.90D-07
 NDBF=    713  NBFD=   713
 NRank=   697 NBFDU=   697
 S*AI*S=  11.0109334214    
 Initial guess from the checkpoint file:  "dmf_0.chk"
 B after Tr=     0.003088   -0.001864    0.023836
         Rot=    0.999938    0.000178    0.011151    0.000084 Ang=   1.28 deg.
 Recovered     1 saved fitting vectors from chk file.
 ExpMin= 3.60D-02 ExpMax= 8.59D+03 ExpMxC= 1.30D+03 IAcc=3 IRadAn=         5 AccDes= 0.00D+00
 Harris functional with IExCor= 1009 and IRadAn=       5 diagonalized for initial guess.
 HarFok:  IExCor= 1009 AccDes= 0.00D+00 IRadAn=         5 IDoV= 1 UseB2=F ITyADJ=14
 ICtDFT=  3500011 ScaDFX=  1.000000  1.000000  1.000000  1.000000
 FoFCou: FMM=F IPFlag=           0 FMFlag=      100000 FMFlg1=           0
         NFxFlg=           0 DoJE=T BraDBF=F KetDBF=T FulRan=T
         wScrn=  0.000000 ICntrl=       500 IOpCl=  0 I1Cent=   200000004 NGrid=           0
         NMat0=    1 NMatS0=      1 NMatT0=    0 NMatD0=    1 NMtDS0=    0 NMtDT0=    0
 Symmetry not used in FoFCou.
 Requested convergence on RMS density matrix=1.00D-08 within  32 cycles.
 Requested convergence on MAX density matrix=1.00D-06.
 Requested convergence on             energy=1.00D-06.
 No special actions if energy rises.
 FoFCou: FMM=F IPFlag=           0 FMFlag=      100000 FMFlg1=           0
         NFxFlg=           0 DoJE=T BraDBF=T KetDBF=F FulRan=T
         wScrn=  0.000000 ICntrl=       500 IOpCl=  0 I1Cent=           5 NGrid=           0
         NMat0=    1 NMatS0=      1 NMatT0=    0 NMatD0=    1 NMtDS0=    0 NMtDT0=    0
 Symmetry not used in FoFCou.
 Inv3:  Mode=1 IEnd=     3320112.
 Iteration    1 A*A^-1 deviation from unit magnitude is 3.11D-15 for    371.
 Iteration    1 A*A^-1 deviation from orthogonality  is 1.84D-15 for    566    300.
 Iteration    1 A^-1*A deviation from unit magnitude is 2.66D-15 for    739.
 Iteration    1 A^-1*A deviation from orthogonality  is 1.84D-15 for    631      2.
 Error on total polarization charges =  0.02414
 SCF Done:  E(RM06L) =  -248.559111726     A.U. after   11 cycles
            NFock= 11  Conv=0.43D-08     -V/T= 2.0041
 SMD-CDS (non-electrostatic) energy       (kcal/mol) =      -0.44
 (included in total energy above)
 QCSCF skips out because SCF is already converged.
 D1PCM: PCM CHGder 1st derivatives, ID1Alg=3 FixD1E=F DoIter=F DoCFld=F I1PDM=0.
 Calling FoFJK, ICntrl=      2527 FMM=F ISym2X=0 I1Cent= 4 IOpClX= 0 NMat=1 NMatS=1 NMatT=0.
 -------------------------------------------------------------------
 Center     Atomic                   Forces (Hartrees/Bohr)
 Number     Number              X              Y              Z
 -------------------------------------------------------------------
      1        8          -0.000220936    0.000063355   -0.000014564
      2        7          -0.000236091   -0.000166904   -0.000599886
      3        6           0.000391636    0.000328082   -0.000150044
      4        6          -0.000080374   -0.000250040    0.000101534
      5        6           0.000035589   -0.000046245    0.000278008
      6        1           0.000009436    0.000117938    0.000207907
      7        1           0.000042791    0.000271198    0.000041188
      8        1          -0.000036478   -0.000045148    0.000007836
      9        1          -0.000034067   -0.000019232    0.000040955
     10        1           0.000046964   -0.000019890    0.000005716
     11        1           0.000059592   -0.000037764   -0.000060176
     12        1           0.000021938   -0.000195349    0.000141526
 -------------------------------------------------------------------
 Cartesian Forces:  Max     0.000599886 RMS     0.000178796

 GradGradGradGradGradGradGradGradGradGradGradGradGradGradGradGradGradGrad
 Berny optimization.
 Using GEDIIS/GDIIS optimizer.
 FormGI is forming the generalized inverse of G from B-inverse, IUseBI=4.
 Internal  Forces:  Max     0.000511721 RMS     0.000170665
 Search for a local minimum.
 Step number   3 out of a maximum of   55
 All quantities printed in internal units (Hartrees-Bohrs-Radians)
 Mixed Optimization -- En-DIIS/RFO-DIIS
 Swapping is turned off.
 Update second derivatives using D2CorX and points    2    3
 DE= -1.80D-04 DEPred=-1.70D-04 R= 1.06D+00
 TightC=F SS=  1.41D+00  RLast= 4.69D-01 DXNew= 8.4853D-01 1.4078D+00
 Trust test= 1.06D+00 RLast= 4.69D-01 DXMaxT set to 8.49D-01
 ITU=  1  1  0
     Eigenvalues ---    0.00082   0.00198   0.00538   0.01959   0.05763
     Eigenvalues ---    0.05851   0.05893   0.05958   0.08017   0.12453
     Eigenvalues ---    0.12862   0.14368   0.15228   0.16834   0.17219
     Eigenvalues ---    0.17656   0.20819   0.22615   0.24801   0.31079
     Eigenvalues ---    0.32567   0.32819   0.34166   0.35102   0.36754
     Eigenvalues ---    0.38380   0.38756   0.39381   0.48858   0.74680
 En-DIIS/RFO-DIIS/Sim-DIIS IScMMF=       -3 using points:     3    2
 RFO step:  Lambda=-3.39997994D-05.
 DidBck=F Rises=F RFO-DIIS coefs:    1.37748   -0.37748
 Iteration  1 RMS(Cart)=  0.03086430 RMS(Int)=  0.00076936
 Iteration  2 RMS(Cart)=  0.00080894 RMS(Int)=  0.00010207
 Iteration  3 RMS(Cart)=  0.00000043 RMS(Int)=  0.00010207
 Variable       Old X    -DE/DX   Delta X   Delta X   Delta X     New X
                                 (Linear)    (Quad)   (Total)
    R1        2.31426  -0.00016   0.00055  -0.00054   0.00001   2.31426
    R2        2.73097   0.00046  -0.00065   0.00146   0.00081   2.73179
    R3        2.73058   0.00027  -0.00002   0.00013   0.00011   2.73068
    R4        2.55158  -0.00010   0.00072  -0.00075  -0.00003   2.55155
    R5        2.06718   0.00019   0.00192  -0.00034   0.00158   2.06876
    R6        2.05735   0.00016   0.00054  -0.00031   0.00023   2.05758
    R7        2.07003  -0.00018   0.00116  -0.00191  -0.00075   2.06928
    R8        2.06875   0.00002   0.00016   0.00013   0.00029   2.06905
    R9        2.06126   0.00001   0.00000   0.00001   0.00002   2.06128
   R10        2.06944  -0.00003  -0.00014  -0.00015  -0.00029   2.06915
   R11        2.09221   0.00003  -0.00021   0.00023   0.00003   2.09224
    A1        2.04349   0.00051  -0.00247   0.00423   0.00137   2.04486
    A2        2.11843  -0.00041   0.00352  -0.00361  -0.00048   2.11795
    A3        2.12054  -0.00010   0.00034  -0.00012  -0.00018   2.12037
    A4        1.92554   0.00003   0.00278   0.00028   0.00307   1.92860
    A5        1.90205   0.00036  -0.00140   0.00181   0.00041   1.90246
    A6        1.93314  -0.00027  -0.00174  -0.00231  -0.00405   1.92909
    A7        1.90937  -0.00019   0.00003  -0.00174  -0.00171   1.90766
    A8        1.88866   0.00007  -0.00106   0.00097  -0.00008   1.88858
    A9        1.90487  -0.00000   0.00141   0.00096   0.00237   1.90724
   A10        1.93150   0.00008  -0.00004   0.00077   0.00073   1.93223
   A11        1.91409   0.00004   0.00029  -0.00039  -0.00010   1.91399
   A12        1.93281  -0.00004  -0.00055   0.00012  -0.00043   1.93238
   A13        1.89841  -0.00007  -0.00005  -0.00057  -0.00062   1.89779
   A14        1.88881  -0.00000   0.00018  -0.00007   0.00011   1.88892
   A15        1.89746  -0.00001   0.00018   0.00012   0.00030   1.89776
   A16        2.19974  -0.00030   0.00138  -0.00154  -0.00016   2.19958
   A17        2.13862   0.00008  -0.00048   0.00018  -0.00031   2.13831
   A18        1.94481   0.00021  -0.00089   0.00138   0.00049   1.94529
    D1        0.99745  -0.00002   0.05822  -0.00960   0.04860   1.04606
    D2        3.09410  -0.00001   0.05909  -0.01044   0.04864  -3.14044
    D3       -1.09330   0.00004   0.05885  -0.00952   0.04933  -1.04397
    D4       -2.18426   0.00006   0.08046   0.00407   0.08455  -2.09971
    D5       -0.08761   0.00007   0.08133   0.00324   0.08458  -0.00303
    D6        2.00817   0.00013   0.08110   0.00416   0.08527   2.09344
    D7       -1.06036   0.00005   0.00909   0.00357   0.01262  -1.04775
    D8        3.12837   0.00006   0.00898   0.00404   0.01299   3.14135
    D9        1.03426   0.00007   0.00892   0.00407   0.01295   1.04721
   D10        2.12140  -0.00003  -0.01337  -0.01004  -0.02337   2.09803
   D11        0.02695  -0.00002  -0.01348  -0.00957  -0.02300   0.00394
   D12       -2.06716  -0.00001  -0.01354  -0.00954  -0.02304  -2.09020
   D13        0.01701  -0.00006  -0.01191  -0.00358  -0.01553   0.00147
   D14       -3.13004   0.00001  -0.01024  -0.00037  -0.01065  -3.14069
   D15        3.11670   0.00004   0.01116   0.01080   0.02200   3.13871
   D16       -0.03034   0.00011   0.01284   0.01401   0.02689  -0.00346
         Item               Value     Threshold  Converged?
 Maximum Force            0.000512     0.000450     NO 
 RMS     Force            0.000171     0.000300     YES
 Maximum Displacement     0.105586     0.001800     NO 
 RMS     Displacement     0.030868     0.001200     NO 
 Predicted change in Energy=-1.753291D-05
 GradGradGradGradGradGradGradGradGradGradGradGradGradGradGradGradGradGrad

                          Input orientation:                          
 ---------------------------------------------------------------------
 Center     Atomic      Atomic             Coordinates (Angstroms)
 Number     Number       Type             X           Y           Z
 ---------------------------------------------------------------------
      1          8           0        1.876349    0.014327    0.013970
      2          7           0       -0.418424   -0.013737   -0.021169
      3          6           0       -0.581016    1.421909   -0.068523
      4          6           0       -1.621496   -0.814166   -0.019626
      5          6           0        0.806237   -0.581188    0.015022
      6          1           0       -1.151539    1.771927    0.797761
      7          1           0        0.401891    1.890328   -0.065252
      8          1           0       -2.244090   -0.575674    0.848870
      9          1           0       -1.358443   -1.872092    0.017773
     10          1           0       -2.210428   -0.629995   -0.924141
     11          1           0        0.739939   -1.685887    0.047646
     12          1           0       -1.119418    1.717693   -0.974995
 ---------------------------------------------------------------------
                    Distance matrix (angstroms):
                    1          2          3          4          5
     1  O    0.000000
     2  N    2.295214   0.000000
     3  C    2.833150   1.445600   0.000000
     4  C    3.594781   1.445015   2.466783   0.000000
     5  C    1.224655   1.350224   2.438001   2.439132   0.000000
     6  H    3.587700   2.096831   1.094740   2.752609   3.159544
     7  H    2.387401   2.073723   1.088822   3.377938   2.505660
     8  H    4.245372   2.098999   2.756404   1.094892   3.162251
     9  H    3.744659   2.082939   3.385599   1.090781   2.520373
    10  H    4.242282   2.099145   2.756334   1.094946   3.159854
    11  H    2.045309   2.035344   3.378877   2.518094   1.107167
    12  H    3.585266   2.097386   1.095014   2.752294   3.158028
                    6          7          8          9         10
     6  H    0.000000
     7  H    1.780999   0.000000
     8  H    2.589886   3.730684   0.000000
     9  H    3.732300   4.154693   1.776456   0.000000
    10  H    3.139334   3.730138   1.774162   1.776481   0.000000
    11  H    4.012086   3.593930   3.283133   2.106839   3.280845
    12  H    1.773876   1.780959   3.138615   3.732195   2.589311
                   11         12
    11  H    0.000000
    12  H    4.010905   0.000000
 Symmetry turned off by external request.
 Stoichiometry    C3H7NO
 Framework group  C1[X(C3H7NO)]
 Deg. of freedom    30
 Full point group                 C1      NOp   1
 Rotational constants (GHZ):           8.9748812           4.1912979           2.9633194
 Standard basis: 6-311++G(d,p) (5D, 7F)
   159 basis functions,   243 primitive gaussians,   164 cartesian basis functions
    20 alpha electrons       20 beta electrons
       nuclear repulsion energy       181.7637928765 Hartrees.
 NAtoms=   12 NActive=   12 NUniq=   12 SFac= 1.00D+00 NAtFMM=   60 NAOKFM=F Big=F
 Integral buffers will be    131072 words long.
 Raffenetti 2 integral format.
 Two-electron integral symmetry is turned off.
 Standard density basis: Auto (5D, 7F)
   713 Density fitting functions
 ------------------------------------------------------------------------------
 Polarizable Continuum Model (PCM)
 =================================
 Model                : PCM.
 Atomic radii         : SMD-Coulomb.
 Polarization charges : Total charges.
 Charge compensation  : None.
 Solution method      : Matrix inversion.
 Cavity type          : VdW (van der Waals Surface) (Alpha=1.000).
 Cavity algorithm     : GePol (No added spheres)
                        Default sphere list used, NSphG=   12.
                        Lebedev-Laikov grids with approx.  5.0 points / Ang**2.
                        Smoothing algorithm: York/Karplus (Gamma=1.0000).
                        Polarization charges: spherical gaussians, with
                                              point-specific exponents (IZeta= 3).
                        Self-potential: point-specific (ISelfS= 7).
                        Self-field    : sphere-specific E.n sum rule (ISelfD= 2).
 1st derivatives      : Analytical E(r).r(x)/FMM algorithm (CHGder, D1EAlg=3).
                        Cavity 1st derivative terms included.
 Solvent              : n,n-DiMethylFormamide, Eps=  37.219000 Eps(inf)=   2.046330
 ------------------------------------------------------------------------------
 Spheres list:
 ISph  on   Nord     Re0    Alpha      Xe            Ye            Ze
    1   O      1    2.2940  1.000      1.876349      0.014327      0.013970
    2   N      2    1.8900  1.000     -0.418424     -0.013737     -0.021169
    3   C      3    1.8500  1.000     -0.581016      1.421909     -0.068523
    4   C      4    1.8500  1.000     -1.621496     -0.814166     -0.019626
    5   C      5    1.8500  1.000      0.806237     -0.581188      0.015022
    6   H      6    1.2000  1.000     -1.151539      1.771927      0.797761
    7   H      7    1.2000  1.000      0.401891      1.890328     -0.065252
    8   H      8    1.2000  1.000     -2.244090     -0.575674      0.848870
    9   H      9    1.2000  1.000     -1.358443     -1.872092      0.017773
   10   H     10    1.2000  1.000     -2.210428     -0.629995     -0.924141
   11   H     11    1.2000  1.000      0.739939     -1.685887      0.047646
   12   H     12    1.2000  1.000     -1.119418      1.717693     -0.974995
 ------------------------------------------------------------------------------
 ------------------------------------------------------------------------------
 Atomic radii for non-electrostatic terms: SMD-CDS.
 ------------------------------------------------------------------------------
 Nuclear repulsion after PCM non-electrostatic terms =      181.7631009657 Hartrees.
 One-electron integrals computed using PRISM.
 NBasis=   159 RedAO= T EigKep=  1.88D-04  NBF=   159
 NBsUse=   159 1.00D-06 EigRej= -1.00D+00 NBFU=   159
 NBasis=      159 NBas6D=      164 NTT=       12720   NTT6D=    13530
 NDBShl=      119 NDBF=        713 NDBF6D=      821  NNucDB=        0
 IDenFi=        2 ISolve=        0 FullAP=F BlkAPC=T NucTyp=        0
 TolInv= 1.00D-06 TolIt=  1.00D-10 IR12=0.
 FoFCou: FMM=F IPFlag=           0 FMFlag=           0 FMFlg1=           0
         NFxFlg=           0 DoJE=F BraDBF=T KetDBF=T FulRan=T
         wScrn=  0.000000 ICntrl=       600 IOpCl=  3 I1Cent=           6 NGrid=           0
         NMat0=    1 NMatS0=    821 NMatT0=    0 NMatD0=    1 NMtDS0=    0 NMtDT0=    0
 Symmetry not used in FoFCou.
 DBF EigKep=  1.06D-06 EigRej=  9.88D-07
 NDBF=    713  NBFD=   713
 NRank=   697 NBFDU=   697
 S*AI*S=  11.0104874099    
 Initial guess from the checkpoint file:  "dmf_0.chk"
 B after Tr=    -0.000794    0.000453    0.009103
         Rot=    0.999988    0.000245    0.004860   -0.000138 Ang=   0.56 deg.
 Recovered     1 saved fitting vectors from chk file.
 ExpMin= 3.60D-02 ExpMax= 8.59D+03 ExpMxC= 1.30D+03 IAcc=3 IRadAn=         5 AccDes= 0.00D+00
 Harris functional with IExCor= 1009 and IRadAn=       5 diagonalized for initial guess.
 HarFok:  IExCor= 1009 AccDes= 0.00D+00 IRadAn=         5 IDoV= 1 UseB2=F ITyADJ=14
 ICtDFT=  3500011 ScaDFX=  1.000000  1.000000  1.000000  1.000000
 FoFCou: FMM=F IPFlag=           0 FMFlag=      100000 FMFlg1=           0
         NFxFlg=           0 DoJE=T BraDBF=F KetDBF=T FulRan=T
         wScrn=  0.000000 ICntrl=       500 IOpCl=  0 I1Cent=   200000004 NGrid=           0
         NMat0=    1 NMatS0=      1 NMatT0=    0 NMatD0=    1 NMtDS0=    0 NMtDT0=    0
 Symmetry not used in FoFCou.
 Requested convergence on RMS density matrix=1.00D-08 within  32 cycles.
 Requested convergence on MAX density matrix=1.00D-06.
 Requested convergence on             energy=1.00D-06.
 No special actions if energy rises.
 FoFCou: FMM=F IPFlag=           0 FMFlag=      100000 FMFlg1=           0
         NFxFlg=           0 DoJE=T BraDBF=T KetDBF=F FulRan=T
         wScrn=  0.000000 ICntrl=       500 IOpCl=  0 I1Cent=           5 NGrid=           0
         NMat0=    1 NMatS0=      1 NMatT0=    0 NMatD0=    1 NMtDS0=    0 NMtDT0=    0
 Symmetry not used in FoFCou.
 Inv3:  Mode=1 IEnd=     3276075.
 Iteration    1 A*A^-1 deviation from unit magnitude is 3.11D-15 for    724.
 Iteration    1 A*A^-1 deviation from orthogonality  is 1.60D-15 for    353    130.
 Iteration    1 A^-1*A deviation from unit magnitude is 3.00D-15 for    229.
 Iteration    1 A^-1*A deviation from orthogonality  is 1.33D-15 for    951    732.
 Error on total polarization charges =  0.02415
 SCF Done:  E(RM06L) =  -248.559130040     A.U. after   10 cycles
            NFock= 10  Conv=0.72D-08     -V/T= 2.0041
 SMD-CDS (non-electrostatic) energy       (kcal/mol) =      -0.43
 (included in total energy above)
 QCSCF skips out because SCF is already converged.
 D1PCM: PCM CHGder 1st derivatives, ID1Alg=3 FixD1E=F DoIter=F DoCFld=F I1PDM=0.
 Calling FoFJK, ICntrl=      2527 FMM=F ISym2X=0 I1Cent= 4 IOpClX= 0 NMat=1 NMatS=1 NMatT=0.
 -------------------------------------------------------------------
 Center     Atomic                   Forces (Hartrees/Bohr)
 Number     Number              X              Y              Z
 -------------------------------------------------------------------
      1        8          -0.000151544    0.000050501   -0.000005866
      2        7          -0.000068408   -0.000010611   -0.000094665
      3        6           0.000043774    0.000122447   -0.000093750
      4        6          -0.000081422   -0.000118357    0.000041772
      5        6           0.000070340   -0.000038349    0.000016396
      6        1           0.000081643   -0.000002019   -0.000012508
      7        1          -0.000036433    0.000135772    0.000022107
      8        1          -0.000003173   -0.000017436    0.000001133
      9        1          -0.000014551   -0.000002704    0.000005895
     10        1           0.000009353   -0.000008747    0.000010889
     11        1           0.000014970   -0.000017192   -0.000025997
     12        1           0.000135452   -0.000093305    0.000134595
 -------------------------------------------------------------------
 Cartesian Forces:  Max     0.000151544 RMS     0.000068387

 GradGradGradGradGradGradGradGradGradGradGradGradGradGradGradGradGradGrad
 Berny optimization.
 Using GEDIIS/GDIIS optimizer.
 FormGI is forming the generalized inverse of G from B-inverse, IUseBI=4.
 Internal  Forces:  Max     0.000210960 RMS     0.000083402
 Search for a local minimum.
 Step number   4 out of a maximum of   55
 All quantities printed in internal units (Hartrees-Bohrs-Radians)
 Mixed Optimization -- En-DIIS/RFO-DIIS
 Swapping is turned off.
 Update second derivatives using D2CorX and points    3    4
 DE= -1.83D-05 DEPred=-1.75D-05 R= 1.04D+00
 TightC=F SS=  1.41D+00  RLast= 1.80D-01 DXNew= 1.4270D+00 5.4034D-01
 Trust test= 1.04D+00 RLast= 1.80D-01 DXMaxT set to 8.49D-01
 ITU=  1  1  1  0
     Eigenvalues ---    0.00092   0.00198   0.00516   0.01955   0.05764
     Eigenvalues ---    0.05861   0.05884   0.05953   0.08008   0.12461
     Eigenvalues ---    0.12864   0.14326   0.15211   0.16585   0.17149
     Eigenvalues ---    0.17629   0.20182   0.22323   0.24672   0.31050
     Eigenvalues ---    0.32505   0.32774   0.33988   0.34698   0.36849
     Eigenvalues ---    0.38299   0.38754   0.39237   0.48854   0.74522
 En-DIIS/RFO-DIIS/Sim-DIIS IScMMF=       -3 using points:     4    3    2
 RFO step:  Lambda=-1.59719070D-06.
 DidBck=F Rises=F RFO-DIIS coefs:    1.21551   -0.33565    0.12014
 Iteration  1 RMS(Cart)=  0.00384857 RMS(Int)=  0.00003015
 Iteration  2 RMS(Cart)=  0.00001205 RMS(Int)=  0.00002787
 Iteration  3 RMS(Cart)=  0.00000000 RMS(Int)=  0.00002787
 Variable       Old X    -DE/DX   Delta X   Delta X   Delta X     New X
                                 (Linear)    (Quad)   (Total)
    R1        2.31426  -0.00011  -0.00017   0.00012  -0.00005   2.31421
    R2        2.73179   0.00013   0.00038   0.00014   0.00053   2.73231
    R3        2.73068   0.00016   0.00003   0.00037   0.00040   2.73109
    R4        2.55155  -0.00006  -0.00024   0.00017  -0.00006   2.55149
    R5        2.06876  -0.00006  -0.00027   0.00003  -0.00024   2.06852
[...]
    D3       -1.04784   0.00000   0.00000   0.00048   0.00048  -1.04736
    D4       -2.10127   0.00000   0.00000   0.00053   0.00053  -2.10075
    D5       -0.00493   0.00000   0.00000   0.00054   0.00054  -0.00439
    D6        2.09153   0.00000   0.00000   0.00054   0.00054   2.09207
    D7       -1.04691  -0.00000   0.00000  -0.00001  -0.00001  -1.04692
    D8       -3.14089  -0.00000   0.00000  -0.00001  -0.00001  -3.14091
    D9        1.04828  -0.00000   0.00000  -0.00002  -0.00002   1.04826
   D10        2.09691   0.00000   0.00000  -0.00006  -0.00006   2.09685
   D11        0.00293  -0.00000   0.00000  -0.00007  -0.00007   0.00286
   D12       -2.09109  -0.00000   0.00000  -0.00007  -0.00007  -2.09116
   D13        0.00101   0.00000   0.00000  -0.00004  -0.00004   0.00097
   D14       -3.14075  -0.00000   0.00000  -0.00005  -0.00005  -3.14081
   D15        3.14028  -0.00000   0.00000   0.00001   0.00001   3.14030
   D16       -0.00148  -0.00000   0.00000   0.00001   0.00001  -0.00148
         Item               Value     Threshold  Converged?
 Maximum Force            0.000014     0.000450     YES
 RMS     Force            0.000005     0.000300     YES
 Maximum Displacement     0.000841     0.001800     YES
 RMS     Displacement     0.000237     0.001200     YES
 Predicted change in Energy=-3.192962D-09
 Optimization completed.
    -- Stationary point found.
                           ----------------------------
                           !   Optimized Parameters   !
                           ! (Angstroms and Degrees)  !
 --------------------------                            --------------------------
 ! Name  Definition              Value          Derivative Info.                !
 --------------------------------------------------------------------------------
 ! R1    R(1,5)                  1.2246         -DE/DX =    0.0                 !
 ! R2    R(2,3)                  1.4458         -DE/DX =    0.0                 !
 ! R3    R(2,4)                  1.4452         -DE/DX =    0.0                 !
 ! R4    R(2,5)                  1.3502         -DE/DX =    0.0                 !
 ! R5    R(3,6)                  1.0946         -DE/DX =    0.0                 !
 ! R6    R(3,7)                  1.0888         -DE/DX =    0.0                 !
 ! R7    R(3,12)                 1.0947         -DE/DX =    0.0                 !
 ! R8    R(4,8)                  1.0949         -DE/DX =    0.0                 !
 ! R9    R(4,9)                  1.0908         -DE/DX =    0.0                 !
 ! R10   R(4,10)                 1.0949         -DE/DX =    0.0                 !
 ! R11   R(5,11)                 1.1072         -DE/DX =    0.0                 !
 ! A1    A(3,2,4)              117.2126         -DE/DX =    0.0                 !
 ! A2    A(3,2,5)              121.2999         -DE/DX =    0.0                 !
 ! A3    A(4,2,5)              121.4873         -DE/DX =    0.0                 !
 ! A4    A(2,3,6)              110.4945         -DE/DX =    0.0                 !
 ! A5    A(2,3,7)              109.066          -DE/DX =    0.0                 !
 ! A6    A(2,3,12)             110.5052         -DE/DX =    0.0                 !
 ! A7    A(6,3,7)              109.2555         -DE/DX =    0.0                 !
 ! A8    A(6,3,12)             108.2392         -DE/DX =    0.0                 !
 ! A9    A(7,3,12)             109.2558         -DE/DX =    0.0                 !
 ! A10   A(2,4,8)              110.7161         -DE/DX =    0.0                 !
 ! A11   A(2,4,9)              109.6561         -DE/DX =    0.0                 !
 ! A12   A(2,4,10)             110.7199         -DE/DX =    0.0                 !
 ! A13   A(8,4,9)              108.7304         -DE/DX =    0.0                 !
 ! A14   A(8,4,10)             108.2325         -DE/DX =    0.0                 !
 ! A15   A(9,4,10)             108.7301         -DE/DX =    0.0                 !
 ! A16   A(1,5,2)              125.9885         -DE/DX =    0.0                 !
 ! A17   A(1,5,11)             122.5274         -DE/DX =    0.0                 !
 ! A18   A(2,5,11)             111.4841         -DE/DX =    0.0                 !
 ! D1    D(4,2,3,6)             59.7336         -DE/DX =    0.0                 !
 ! D2    D(4,2,3,7)            179.845          -DE/DX =    0.0                 !
 ! D3    D(4,2,3,12)           -60.0367         -DE/DX =    0.0                 !
 ! D4    D(5,2,3,6)           -120.3939         -DE/DX =    0.0                 !
 ! D5    D(5,2,3,7)             -0.2825         -DE/DX =    0.0                 !
 ! D6    D(5,2,3,12)           119.8358         -DE/DX =    0.0                 !
 ! D7    D(3,2,4,8)            -59.9838         -DE/DX =    0.0                 !
 ! D8    D(3,2,4,9)           -179.9599         -DE/DX =    0.0                 !
 ! D9    D(3,2,4,10)            60.0618         -DE/DX =    0.0                 !
 ! D10   D(5,2,4,8)            120.144          -DE/DX =    0.0                 !
 ! D11   D(5,2,4,9)              0.1679         -DE/DX =    0.0                 !
 ! D12   D(5,2,4,10)          -119.8104         -DE/DX =    0.0                 !
 ! D13   D(3,2,5,1)              0.0579         -DE/DX =    0.0                 !
 ! D14   D(3,2,5,11)          -179.9519         -DE/DX =    0.0                 !
 ! D15   D(4,2,5,1)            179.9249         -DE/DX =    0.0                 !
 ! D16   D(4,2,5,11)            -0.085          -DE/DX =    0.0                 !
 --------------------------------------------------------------------------------
 GradGradGradGradGradGradGradGradGradGradGradGradGradGradGradGradGradGrad


 ----------------------------------------------------------------------

 Electric dipole moment (input orientation):
 (Debye = 10**-18 statcoulomb cm , SI units = C m)
                  (au)            (Debye)         (10**-30 SI)
   Tot        0.207479D+01      0.527358D+01      0.175908D+02
   x         -0.205578D+01     -0.522528D+01     -0.174297D+02
   y         -0.278972D+00     -0.709076D+00     -0.236522D+01
   z         -0.259464D-01     -0.659491D-01     -0.219982D+00

 Dipole polarizability, Alpha (input orientation).
 (esu units = cm**3 , SI units = C**2 m**2 J**-1)
 Alpha(0;0):
               (au)            (10**-24 esu)      (10**-40 SI)
   iso        0.642278D+02      0.951758D+01      0.105897D+02
   aniso      0.278118D+02      0.412128D+01      0.458554D+01
   xx         0.798299D+02      0.118296D+02      0.131622D+02
   yx        -0.209296D+01     -0.310145D+00     -0.345083D+00
   yy         0.648061D+02      0.960327D+01      0.106851D+02
   zx         0.606338D+00      0.898501D-01      0.999717D-01
   zy        -0.549771D+00     -0.814676D-01     -0.906450D-01
   zz         0.480475D+02      0.711990D+01      0.792196D+01

 ----------------------------------------------------------------------

 Dipole orientation:
     8          0.04264244         -0.44630515         -3.51585049
     7         -0.04244825          0.07539672          0.78832132
     6         -0.49765995          2.76871058          0.72716140
     6          0.15397787         -1.10255817          3.24444065
     6          0.18408229         -1.27985811         -1.36166701
     1          1.02710923          3.78296518          1.68913183
     1         -0.59512527          3.38957559         -1.23209606
     1          1.71331128         -0.28055194          4.32778642
     1          0.49706272         -3.12255004          3.01918580
     1         -1.59217002         -0.84145480          4.32330476
     1          0.52503466         -3.30449458         -0.95891181
     1         -2.27819144          3.22443854          1.67660961

 Electric dipole moment (dipole orientation):
 (Debye = 10**-18 statcoulomb cm , SI units = C m)
                  (au)            (Debye)         (10**-30 SI)
   Tot        0.207479D+01      0.527358D+01      0.175908D+02
   x          0.000000D+00      0.000000D+00      0.000000D+00
   y          0.000000D+00      0.000000D+00      0.000000D+00
   z          0.207479D+01      0.527358D+01      0.175908D+02

 Dipole polarizability, Alpha (dipole orientation).
 (esu units = cm**3 , SI units = C**2 m**2 J**-1)
 Alpha(0;0):
               (au)            (10**-24 esu)      (10**-40 SI)
   iso        0.642278D+02      0.951758D+01      0.105897D+02
   aniso      0.278118D+02      0.412128D+01      0.458554D+01
   xx         0.485108D+02      0.718856D+01      0.799835D+01
   yx        -0.289984D+01     -0.429711D+00     -0.478118D+00
   yy         0.651638D+02      0.965628D+01      0.107441D+02
   zx        -0.679879D+00     -0.100748D+00     -0.112097D+00
   zy         0.397132D+01      0.588489D+00      0.654783D+00
   zz         0.790088D+02      0.117079D+02      0.130268D+02

 ----------------------------------------------------------------------
 Unable to Open any file for archive entry.
 1\1\GINC-CN1107\Freq\RM06L\6-311++G(d,p)/Auto\C3H7N1O1\QUACH062\10-Dec
 -2024\0\\#N Geom=AllCheck Guess=TCheck SCRF=Check GenChk RM06L/6-311++
 G(d,p)/Auto Freq\\Title Card Required\\0,1\O,1.8754604908,0.015265403,
 0.0138698036\N,-0.4188537798,-0.01389249,-0.0221090906\C,-0.5804679892
 ,1.4221053179,-0.0687504113\C,-1.6219699998,-0.814608928,-0.0191847566
 \C,0.8059015251,-0.5811289521,0.0144662315\H,-1.1525872333,1.771694950
 5,0.7965324647\H,0.4022048962,1.8910017159,-0.0627128357\H,-2.24389862
 26,-0.5759939964,0.8497390747\H,-1.358594837,-1.8724391909,0.018468795
 \H,-2.2116535251,-0.6310689161,-0.9233041935\H,0.740317136,-1.68590407
 4,0.0465152403\H,-1.1162953214,1.7184136602,-0.9761938121\\Version=ES6
 4L-G16RevC.01\HF=-248.5591307\RMSD=5.416e-09\RMSF=4.734e-06\ZeroPoint=
 0.1017936\Thermal=0.1078969\ETot=-248.4512338\HTot=-248.4502896\GTot=-
 248.4864607\Dipole=-2.0557833,-0.2789721,-0.0259464\DipoleDeriv=-1.997
 2699,-0.0951055,-0.0224629,-0.6559259,-0.7512839,-0.002906,-0.00534,0.
 0064728,-0.4696699,-1.4841041,0.1316641,-0.0217851,0.4998235,-0.742779
 2,0.0186062,-0.0294811,0.0115694,-0.402145,0.027018,-0.0795325,-0.0038
 921,-0.253003,0.6048422,-0.0132524,0.0004791,-0.0087987,0.3506305,0.67
 05325,0.2138137,-0.0002571,0.3298043,0.2091433,0.011343,-0.0046428,0.0
 082702,0.3630203,2.8167894,-0.1488294,0.0473618,0.0308379,0.9934049,-0
 .0236029,0.0412886,-0.025694,0.184296,0.034183,0.0902597,0.109063,0.07
 58096,-0.027866,0.0039817,0.1308525,-0.0919175,-0.0817214,-0.0055708,-
 0.1444939,0.0012913,-0.0187322,0.0275129,0.0027322,-0.001811,0.0000294
 ,0.1154773,-0.1024263,-0.0376406,0.0696555,-0.0007955,0.0648204,-0.087
 633,0.1656053,-0.0370782,-0.0864476,0.0406754,0.0910611,-0.0040206,-0.
 0279552,-0.1236447,0.0067425,-0.0002788,0.0078708,0.1207651,-0.0937339
 ,-0.0435286,-0.0671479,-0.0156289,0.0725722,0.0766693,-0.1661525,0.025
 882,-0.1023881,0.0497329,-0.0574201,0.0005802,-0.0332212,-0.3024961,0.
 0119367,-0.0000291,0.0110743,0.1052637,0.0441739,0.0797521,-0.1083861,
 0.0689865,-0.0242261,-0.0046172,-0.1304902,0.0923195,-0.0970809\Polar=
 79.829892,-2.092962,64.8060648,0.6063382,-0.5497709,48.0474892\Quadrup
 ole=-4.1069014,3.401868,0.7050334,-0.4518589,-0.0005908,-0.0787909\PG=
 C01 [X(C3H7N1O1)]\NImag=0\\0.61166913,0.28232759,0.24285176,0.00097249
 ,-0.00193342,0.03116287,-0.10201921,-0.00750099,-0.00164815,0.74123241
 ,-0.01142046,0.03088854,-0.00064709,-0.03898768,0.63771871,-0.00144442
 ,-0.00052139,0.01543056,0.01180176,-0.01647204,0.11247251,-0.00094640,
 -0.00145380,0.00009574,-0.10993345,0.01788144,-0.00126900,0.61309495,-
 0.01276357,-0.00475387,-0.00017128,0.00648674,-0.22105436,0.00489429,0
 .01570410,0.48576678,0.00034997,-0.00001603,-0.00308151,-0.00096317,0.
 00509935,-0.06492107,0.00036110,0.00269644,0.55817302,0.00474147,0.004
 17373,-0.00022322,-0.19296461,-0.06307299,-0.00045579,0.00582775,-0.00
 245265,0.00019403,0.52624909,0.01400631,0.00186361,0.00048597,-0.05283
 974,-0.14604514,0.00172411,-0.03033909,-0.02311010,-0.00000594,-0.0568
 1591,0.57621191,-0.00051398,0.00029817,0.01049501,-0.00086775,0.001524
 99,-0.05822372,0.00108968,0.00052173,-0.00268699,0.00090132,-0.0012450
 9,0.55870353,-0.49497053,-0.24183647,0.00033686,-0.28013491,0.08059964
 ,-0.00658243,0.00465477,0.03077906,-0.00070613,-0.04413098,-0.00969272
 ,-0.00013706,0.86015309,-0.25078025,-0.25956571,0.00167325,0.10689771,
 -0.18949770,0.00624038,0.03666245,-0.02510857,0.00129202,-0.01521555,0
 .01351244,-0.00097320,0.14189287,0.73941690,0.00063468,0.00182480,-0.0
 6877674,-0.00713691,0.00579851,-0.03898620,-0.00103284,0.00123118,-0.0
 0121457,-0.00008587,-0.00093294,-0.01208865,0.00691586,-0.01447059,0.1
 7723578,-0.00037852,0.00101810,-0.00060036,-0.00310496,0.00499129,0.00
 089834,-0.11867520,0.03844559,0.11050216,0.00045054,-0.00078210,-0.001
 29630,0.00103305,-0.00050334,0.00116235,0.12280838,0.00286455,0.002486
 28,-0.00071059,0.02538957,-0.02579510,-0.02623307,0.03585609,-0.065429
 16,-0.05717194,0.00243884,0.00192866,-0.00086379,-0.00855340,-0.003092
 38,-0.00258326,-0.04825484,0.08285260,0.00089385,0.00029259,-0.0000737
 6,-0.00150654,-0.00243241,0.00823022,0.11172815,-0.06067060,-0.2168987
 6,-0.00016665,0.00011790,0.00086674,-0.00243982,0.00130986,-0.00054242
 ,-0.12002979,0.06764769,0.22761326,-0.00150741,0.00263007,-0.00013514,
 0.00640367,-0.00022795,0.00019127,-0.27634230,-0.11024840,-0.00139196,
 0.00041604,0.00030054,-0.00000653,-0.00144396,0.00111192,-0.00006983,-
 0.01063565,-0.00537602,-0.00259304,0.29322312,0.00198980,0.00265244,0.
 00006107,-0.03413133,-0.02062850,-0.00011848,-0.09792304,-0.09506231,-
 0.00056991,0.00381997,-0.00540696,0.00022404,-0.00563495,-0.00080221,-
 0.00003506,0.00899130,0.00444280,0.00106027,0.11657756,0.11164036,-0.0
 0009015,0.00006723,-0.00105174,0.00122903,0.00057047,-0.00170825,-0.00
 178549,-0.00081211,-0.04705363,-0.00010828,0.00018048,0.00014921,0.000
 09771,0.00006611,0.00094835,0.02213519,0.01184528,0.00170489,0.0016266
 6,0.00022267,0.04457003,-0.00411235,-0.00052529,-0.00201525,-0.0300843
 4,0.00347025,0.02058477,0.00045632,0.00249440,-0.00026592,-0.12028297,
 0.03329943,0.11098871,0.00408927,-0.00486896,0.00463122,0.00040517,-0.
 00058507,-0.00027066,-0.00004488,0.00010700,-0.00021103,0.14311808,-0.
 00244987,-0.00014276,-0.00072455,-0.01824206,0.00349061,0.01571454,-0.
 00061294,0.00209998,0.00132246,0.03644369,-0.06393933,-0.05246112,0.00
 286806,-0.00224466,0.00166828,0.00060475,0.00039679,-0.00059328,0.0000
 4373,0.00019616,-0.00005483,-0.03070963,0.06256046,0.00088668,0.000348
 76,-0.00035428,0.00213179,0.00254590,0.00748669,-0.00013544,0.00001846
 ,0.00073652,0.11454125,-0.05168254,-0.21809329,-0.00291948,0.00061872,
 -0.00027901,0.00025621,0.00054917,-0.00040236,-0.00007032,0.00008238,0
 .00011039,-0.12584059,0.05367625,0.22880159,0.00076395,0.00068857,-0.0
 0000448,0.00697036,-0.03196405,0.00114866,-0.00477448,-0.00078249,-0.0
 0007150,-0.06843796,0.07449994,-0.00261671,-0.00072530,-0.00411447,0.0
 0015347,0.00004407,0.00009102,-0.00011183,-0.00017946,-0.00148831,0.00
 003512,-0.00346766,0.01505929,-0.00296159,0.07369610,-0.00137899,0.000
 07017,-0.00003684,0.00133815,-0.02197312,0.00064718,-0.00465440,0.0003
 5402,-0.00007617,0.06350158,-0.29954055,0.00890906,0.00637494,0.000471
 13,0.00010057,0.00013152,0.00014125,-0.00002364,0.00047677,-0.00125291
 ,0.00006236,0.00087456,-0.00404492,0.00150723,-0.06704965,0.32796464,0
 .00004616,-0.00001552,-0.00030659,0.00010003,0.00004932,-0.00183462,0.
 00004163,-0.00000851,0.00058293,-0.00225113,0.00918205,-0.04623608,-0.
 00024850,-0.00008839,0.00071706,-0.00011901,0.00025298,0.00013455,-0.0
 0002773,0.00002375,0.00042195,0.00514727,-0.02406443,0.00237710,0.0025
 4664,-0.00986829,0.04336915,-0.00413853,-0.00040290,0.00192461,-0.0292
 6952,0.00220497,-0.02210189,0.00043283,0.00249496,0.00008821,-0.112054
 14,0.02472416,-0.10882025,0.00416058,-0.00508565,-0.00419614,0.0000622
 5,-0.00031049,0.00001422,-0.00005618,0.00011930,0.00020001,0.00972943,
 -0.00296518,0.01421780,-0.00336344,0.00059767,-0.00537614,0.13396499,-
 0.00253591,-0.00013741,0.00063011,-0.01779512,0.00235877,-0.01606014,-
 0.00057216,0.00202392,-0.00141754,0.02761533,-0.05786107,0.04331817,0.
 00312844,-0.00237202,-0.00144649,0.00007289,-0.00012279,0.00012074,0.0
 0004441,0.00018966,0.00005314,-0.00356427,0.00144329,-0.00749692,0.014
 28925,-0.00260854,0.02487555,-0.02112743,0.05634751,-0.00087514,-0.000
 37795,-0.00033727,-0.00236488,-0.00216423,0.00777472,0.00013113,-0.000
 02145,0.00082445,-0.11251381,0.04243681,-0.23208125,0.00288775,-0.0006
 7289,-0.00020162,0.00010444,0.00006549,-0.00036640,0.00005924,-0.00008
 386,0.00012359,-0.01293614,0.00604866,-0.02006071,0.00184954,-0.001168
 43,0.00083302,0.12389434,-0.04350423,0.24389356,-0.00874428,-0.0401409
 8,0.00076737,-0.00402539,0.03170984,-0.00114599,-0.00405964,0.00029194
 ,-0.00019514,-0.00021883,0.00430767,-0.00003636,-0.05367452,-0.0054965
 8,0.00009396,-0.00013018,0.00080988,-0.00019674,-0.00000672,-0.0000767
 6,0.00000348,0.00012701,-0.00011331,-0.00001470,-0.00056298,-0.0003473
 6,0.00003386,0.00013258,-0.00011844,0.00002690,0.07129268,-0.02268171,
 -0.01871248,0.00072487,0.00510089,-0.02546995,0.00107927,0.00239327,0.
 00317073,0.00018316,-0.00286792,0.00039894,-0.00013805,0.00858973,-0.2
 6775331,0.00638710,0.00024072,-0.00069826,0.00000756,-0.00058716,0.000
 37178,-0.00001346,0.00031582,0.00031953,-0.00007743,0.00066635,0.00029
 825,-0.00008652,0.00030251,0.00034289,0.00006855,0.00830424,0.30854508
 ,0.00023854,0.00043653,0.01700315,-0.00033228,0.00151080,0.00802182,-0
 .00027022,0.00015499,0.00799918,0.00016040,-0.00005522,-0.00168275,-0.
 00023880,0.00618854,-0.05624319,0.00023125,0.00193193,-0.00031395,0.00
 001025,-0.00000838,0.00011943,0.00016623,-0.00039834,0.00003542,-0.000
 06863,-0.00008521,-0.00021577,-0.00017741,0.00037757,-0.00000161,0.000
 51551,-0.00816966,0.02548638,-0.00035731,0.00102236,0.00052953,-0.0030
 7005,0.00481569,-0.00162528,-0.10973515,0.02955033,-0.10790165,0.00040
 461,-0.00066849,0.00131525,0.00098945,-0.00050017,-0.00106994,0.008121
 06,-0.00437013,0.01467886,-0.00982626,0.00764946,-0.02313226,0.0000669
 2,0.00007346,-0.00009161,0.00003681,0.00013521,0.00010694,0.00039915,0
 .00056303,-0.00026337,-0.00012971,0.00022326,-0.00023483,0.11310048,0.
 00282251,0.00249944,0.00064849,0.02428387,-0.02399275,0.02910534,0.027
 05809,-0.05889707,0.04866410,0.00243187,0.00198758,0.00088510,-0.00851
 521,-0.00296391,0.00245791,-0.00495586,0.00288933,-0.00683669,-0.00474
 549,0.00365970,-0.01218732,-0.00030824,-0.00013516,-0.00008997,0.00010
 454,0.00012059,-0.00025200,-0.00055192,0.00039579,-0.00062646,0.000869
 87,-0.00081321,-0.00188355,-0.03849402,0.07524966,-0.00109868,-0.00040
 376,-0.00010970,-0.00044290,0.00461645,0.00625734,-0.10895444,0.052166
 87,-0.23245959,0.00000775,-0.00020559,0.00087824,0.00303404,-0.0011837
 9,-0.00056879,-0.01324447,0.00527013,-0.01995203,0.00240714,-0.0008585
 0,0.00166578,0.00002140,-0.00013365,-0.00035806,0.00010132,0.00003218,
 0.00015730,0.00033265,0.00055005,-0.00040049,0.00014786,0.00003460,-0.
 00020813,0.11768835,-0.05988496,0.24509812\\-0.00001177,0.00000161,0.0
 0000866,-0.00000256,-0.00000268,-0.00000340,0.00000739,0.00000502,-0.0
 0000436,-0.00000387,-0.00000621,-0.00000010,0.00000347,-0.00000194,0.0
 0000692,0.00000049,0.00000193,-0.00000317,-0.00000061,0.00000988,0.000
 00258,-0.00000358,0.00000074,-0.00000517,-0.00000165,0.00000014,0.0000
 0069,0.00000380,-0.00000162,-0.00000434,0.00000069,-0.00000179,0.00000
 601,0.00000820,-0.00000507,-0.00000433\\\@
 The archive entry for this job was punched.


 ON A CLEAR DISK YOU CAN SEEK FOREVER.
 Job cpu time:       0 days  2 hours 40 minutes 21.2 seconds.
 Elapsed time:       0 days  0 hours  1 minutes 45.7 seconds.
 File lengths (MBytes):  RWF=     60 Int=      0 D2E=      0 Chk=     13 Scr=      1
 Normal termination of Gaussian 16 at Tue Dec 10 20:05:38 2024.
44624.40user 84.92system 8:17.90elapsed 8979%CPU (0avgtext+0avgdata 8153424maxresident)k
0inputs+261144outputs (5013major+1208511minor)pagefaults 0swaps
