 Entering Gaussian System, Link 0=g16
 Initial command:
 /common/software/install/migrated/gaussian/g16.c01.avx2/g16/l1.exe "/tmp/quach062/27485143/Gau-1848314.inp" -scrdir="/tmp/quach062/27485143/"
 Entering Link 1 = /common/software/install/migrated/gaussian/g16.c01.avx2/g16/l1.exe PID=   1848315.
  
 Copyright (c) 1988-2019, Gaussian, Inc.  All Rights Reserved.
  
 This is part of the Gaussian(R) 16 program.  It is based on
 the Gaussian(R) 09 system (copyright 2009, Gaussian, Inc.),
 the Gaussian(R) 03 system (copyright 2003, Gaussian, Inc.),
 the Gaussian(R) 98 system (copyright 1998, Gaussian, Inc.),
 the Gaussian(R) 94 system (copyright 1995, Gaussian, Inc.),
 the Gaussian 92(TM) system (copyright 1992, Gaussian, Inc.),
 the Gaussian 90(TM) system (copyright 1990, Gaussian, Inc.),
 the Gaussian 88(TM) system (copyright 1988, Gaussian, Inc.),
 the Gaussian 86(TM) system (copyright 1986, Carnegie Mellon
 University), and the Gaussian 82(TM) system (copyright 1983,
 Carnegie Mellon University). Gaussian is a federally registered
 trademark of Gaussian, Inc.
  
 This software contains proprietary and confidential information,
 including trade secrets, belonging to Gaussian, Inc.
  
 This software is provided under written license and may be
 used, copied, transmitted, or stored only in accord with that
 written license.
  
 The following legend is applicable only to US Government
 contracts under FAR:
  
                    RESTRICTED RIGHTS LEGEND
  
 Use, reproduction and disclosure by the US Government is
 subject to restrictions as set forth in subparagraphs (a)
 and (c) of the Commercial Computer Software - Restricted
 Rights clause in FAR 52.227-19.
  
 Gaussian, Inc.
 340 Quinnipiac St., Bldg. 40, Wallingford CT 06492
  
  
 ---------------------------------------------------------------
 Warning -- This program may not be used in any manner that
 competes with the business of Gaussian, Inc. or will provide
 assistance to any competitor of Gaussian, Inc.  The licensee
 of this program is prohibited from giving any competitor of
 Gaussian, Inc. access to this program.  By using this program,
 the user acknowledges that Gaussian, Inc. is engaged in the
 business of creating and licensing software in the field of
 computational chemistry and represents and warrants to the
 licensee that it is not a competitor of Gaussian, Inc. and that
 it will not use this program in any manner prohibited above.
 ---------------------------------------------------------------
  

 Cite this work as:
 Gaussian 16, Revision C.01,
 M. J. Frisch, G. W. Trucks, H. B. Schlegel, G. E. Scuseria, 
 M. A. Robb, J. R. Cheeseman, G. Scalmani, V. Barone, 
 G. A. Petersson, H. Nakatsuji, X. Li, M. Caricato, A. V. Marenich, 
 J. Bloino, B. G. Janesko, R. Gomperts, B. Mennucci, H. P. Hratchian, 
 J. V. Ortiz, A. F. Izmaylov, J. L. Sonnenberg, D. Williams-Young, 
 F. Ding, F. Lipparini, F. Egidi, J. Goings, B. Peng, A. Petrone, 
 T. Henderson, D. Ranasinghe, V. G. Zakrzewski, J. Gao, N. Rega, 
 G. Zheng, W. Liang, M. Hada, M. Ehara, K. Toyota, R. Fukuda, 
 J. Hasegawa, M. Ishida, T. Nakajima, Y. Honda, O. Kitao, H. Nakai, 
 T. Vreven, K. Throssell, J. A. Montgomery, Jr., J. E. Peralta, 
 F. Ogliaro, M. J. Bearpark, J. J. Heyd, E. N. Brothers, K. N. Kudin, 
 V. N. Staroverov, T. A. Keith, R. Kobayashi, J. Normand, 
 K. Raghavachari, A. P. Rendell, J. C. Burant, S. S. Iyengar, 
 J. Tomasi, M. Cossi, J. M. Millam, M. Klene, C. Adamo, R. Cammi, 
 J. W. Ochterski, R. L. Martin, K. Morokuma, O. Farkas, 
 J. B. Foresman, and D. J. Fox, Gaussian, Inc., Wallingford CT, 2019.
 
 ******************************************
 Gaussian 16:  ES64L-G16RevC.01  3-Jul-2019
                28-Nov-2024 
 ******************************************
 %chk=dmf_n1.chk
 %lindaworkers=in-cn0088
 %nprocshared=128
 Will use up to  128 processors via shared memory.
 %mem=59800MB
 SetLPE:  input flags=" -workerwait 900 -opt "Tsnet.Node.lindarsharg: ssh " "
 SetLPE:    new flags=" -workerwait 900 -opt "Tsnet.Node.lindarsharg: ssh " -opt 'Tsnet.Node.lindarsharg: ssh'  -nodelist 'in-cn0088' -env GAUSS_MDEF=7838105600 -env GAUSS_EXEDIR="/common/software/install/migrated/gaussian/g16.c01.avx2/g16/bsd:/common/software/install/migrated/gaussian/g16.c01.avx2/g16/local:/common/software/install/migrated/gaussian/g16.c01.avx2/g16/extras:/common/software/install/migrated/gaussian/g16.c01.avx2/g16""
 Will use up to    1 processors via Linda.
 ----------------------------------------------------------------------
 # opt=calcfc # freq # m06l/6-311++g(d,p)/auto # nosymm integral=grid=u
 ltrafine # scf=(tight,intrep,xqc) # SCRF=(SMD,Solvent=n,n-DiMethylForm
 amide)
 ----------------------------------------------------------------------
 1/10=4,18=20,19=15,26=6,38=1/1,3;
 2/9=110,12=2,15=1,17=6,18=5,40=1/2;
 3/5=4,6=6,7=1111,11=2,25=1,30=1,70=32201,71=2,72=148,74=-53,75=-5,82=28,140=1/1,2,3;
 4//1;
 5/5=2,8=3,13=1,17=20,32=2,38=5,53=148/2,8;
 8/6=4,10=90,11=11/1;
 11/6=1,8=1,9=11,15=111,16=1,31=1/1,2,10;
 10/6=1,13=1,31=1/2;
 6/7=2,8=2,9=2,10=2,28=1/1;
 7/10=1,25=1,30=1/1,2,3,16;
 1/10=4,18=20,19=15,26=6/3(2);
 2/9=110,15=1/2;
 99//99;
 2/9=110,15=1/2;
 3/5=4,6=6,7=1111,11=2,25=1,30=1,70=32205,71=1,72=148,74=-53,75=-5,82=28/1,2,3;
 4/5=5,16=3,69=1/1;
 5/5=2,8=3,13=1,17=20,32=2,38=5,53=148/2,8;
 7/30=1/1,2,3,16;
 1/18=20,19=15,26=6/3(-5);
 2/9=110,15=1/2;
 6/7=2,8=2,9=2,10=2,19=2,28=1/1;
 99/9=1/99;
 -------------------
 Title Card Required
 -------------------
 Symbolic Z-matrix:
 Charge = -1 Multiplicity = 1
 O                     1.85704   0.0329    0.00003 
 N                    -0.43729  -0.016    -0.00001 
 C                    -0.61217   1.41919  0. 
 C                    -1.63335  -0.8273   -0.00003 
 C                     0.79277  -0.5729    0.00001 
 H                    -1.16926   1.73746   0.88695 
 H                     0.36631   1.89681   0.00002 
 H                    -2.24114  -0.62122   0.88706 
 H                    -1.36044  -1.88337  -0.00003 
 H                    -2.24111  -0.62122  -0.88714 
 H                     0.73728  -1.67871   0. 
 

 GradGradGradGradGradGradGradGradGradGradGradGradGradGradGradGradGradGrad
 Berny optimization.
 Initialization pass.
                           ----------------------------
                           !    Initial Parameters    !
                           ! (Angstroms and Degrees)  !
 --------------------------                            --------------------------
 ! Name  Definition              Value          Derivative Info.                !
 --------------------------------------------------------------------------------
 ! R1    R(1,5)                  1.2246         calculate D2E/DX2 analytically  !
 ! R2    R(2,3)                  1.4458         calculate D2E/DX2 analytically  !
 ! R3    R(2,4)                  1.4453         calculate D2E/DX2 analytically  !
 ! R4    R(2,5)                  1.3503         calculate D2E/DX2 analytically  !
 ! R5    R(3,6)                  1.0947         calculate D2E/DX2 analytically  !
 ! R6    R(3,7)                  1.0888         calculate D2E/DX2 analytically  !
 ! R7    R(4,8)                  1.0949         calculate D2E/DX2 analytically  !
 ! R8    R(4,9)                  1.0908         calculate D2E/DX2 analytically  !
 ! R9    R(4,10)                 1.0949         calculate D2E/DX2 analytically  !
 ! R10   R(5,11)                 1.1072         calculate D2E/DX2 analytically  !
 ! A1    A(3,2,4)              117.2023         calculate D2E/DX2 analytically  !
 ! A2    A(3,2,5)              121.3055         calculate D2E/DX2 analytically  !
 ! A3    A(4,2,5)              121.4922         calculate D2E/DX2 analytically  !
 ! A4    A(2,3,6)              110.4973         calculate D2E/DX2 analytically  !
 ! A5    A(2,3,7)              109.071          calculate D2E/DX2 analytically  !
 ! A6    A(6,3,7)              109.2558         calculate D2E/DX2 analytically  !
 ! A7    A(2,4,8)              110.7157         calculate D2E/DX2 analytically  !
 ! A8    A(2,4,9)              109.6603         calculate D2E/DX2 analytically  !
 ! A9    A(2,4,10)             110.7157         calculate D2E/DX2 analytically  !
 ! A10   A(8,4,9)              108.7306         calculate D2E/DX2 analytically  !
 ! A11   A(8,4,10)             108.2323         calculate D2E/DX2 analytically  !
 ! A12   A(9,4,10)             108.7306         calculate D2E/DX2 analytically  !
 ! A13   A(1,5,2)              125.9925         calculate D2E/DX2 analytically  !
 ! A14   A(1,5,11)             122.5222         calculate D2E/DX2 analytically  !
 ! A15   A(2,5,11)             111.4853         calculate D2E/DX2 analytically  !
 ! D1    D(4,2,3,6)             59.8835         calculate D2E/DX2 analytically  !
 ! D2    D(4,2,3,7)           -179.9999         calculate D2E/DX2 analytically  !
 ! D3    D(5,2,3,6)           -120.1166         calculate D2E/DX2 analytically  !
 ! D4    D(5,2,3,7)              0.0            calculate D2E/DX2 analytically  !
 ! D5    D(3,2,4,8)            -60.021          calculate D2E/DX2 analytically  !
 ! D6    D(3,2,4,9)           -179.9999         calculate D2E/DX2 analytically  !
 ! D7    D(3,2,4,10)            60.0212         calculate D2E/DX2 analytically  !
 ! D8    D(5,2,4,8)            119.9791         calculate D2E/DX2 analytically  !
 ! D9    D(5,2,4,9)              0.0003         calculate D2E/DX2 analytically  !
 ! D10   D(5,2,4,10)          -119.9786         calculate D2E/DX2 analytically  !
 ! D11   D(3,2,5,1)              0.0001         calculate D2E/DX2 analytically  !
 ! D12   D(3,2,5,11)          -179.9999         calculate D2E/DX2 analytically  !
 ! D13   D(4,2,5,1)            179.9999         calculate D2E/DX2 analytically  !
 ! D14   D(4,2,5,11)            -0.0001         calculate D2E/DX2 analytically  !
 --------------------------------------------------------------------------------
 Trust Radius=3.00D-01 FncErr=5.00D-06 GrdErr=5.00D-06 EigMax=2.50D+02 EigMin=1.00D-04
 Number of steps in this run=     49 maximum allowed number of steps=    100.
 GradGradGradGradGradGradGradGradGradGradGradGradGradGradGradGradGradGrad

                          Input orientation:                          
 ---------------------------------------------------------------------
 Center     Atomic      Atomic             Coordinates (Angstroms)
 Number     Number       Type             X           Y           Z
 ---------------------------------------------------------------------
      1          8           0        1.857041    0.032899    0.000031
      2          7           0       -0.437292   -0.016000   -0.000005
      3          6           0       -0.612170    1.419189   -0.000001
      4          6           0       -1.633346   -0.827299   -0.000030
      5          6           0        0.792772   -0.572901    0.000011
      6          1           0       -1.169263    1.737456    0.886945
      7          1           0        0.366307    1.896810    0.000016
      8          1           0       -2.241144   -0.621221    0.887055
      9          1           0       -1.360438   -1.883371   -0.000028
     10          1           0       -2.241111   -0.621215   -0.887136
     11          1           0        0.737278   -1.678708    0.000004
 ---------------------------------------------------------------------
                    Distance matrix (angstroms):
                    1          2          3          4          5
     1  O    0.000000
     2  N    2.294854   0.000000
     3  C    2.831749   1.445804   0.000000
     4  C    3.594822   1.445251   2.467693   0.000000
     5  C    1.224607   1.350258   2.437680   2.439419   0.000000
     6  H    3.584780   2.096919   1.094678   2.753192   3.158161
     7  H    2.386724   2.074756   1.088825   3.379258   2.506261
     8  H    4.243796   2.099297   2.757480   1.094900   3.161302
     9  H    3.744898   2.083092   3.386267   1.090764   2.520644
    10  H    4.243793   2.099297   2.757482   1.094900   3.161299
    11  H    2.045353   2.035734   3.379050   2.518880   1.107199
                    6          7          8          9         10
     6  H    0.000000
     7  H    1.780453   0.000000
     8  H    2.590808   3.731772   0.000000
     9  H    3.732781   4.155889   1.776396   0.000000
    10  H    3.139992   3.731771   1.774191   1.776396   0.000000
    11  H    4.011451   3.594711   3.282703   2.107676   3.282699
                   11
    11  H    0.000000
 Symmetry turned off by external request.
 Stoichiometry    C3H6NO(1-)
 Framework group  C1[X(C3H6NO)]
 Deg. of freedom    27
 Full point group                 C1      NOp   1
 Rotational constants (GHZ):           9.6651762           4.2640397           3.0407790
 Standard basis: 6-311++G(d,p) (5D, 7F)
   152 basis functions,   234 primitive gaussians,   157 cartesian basis functions
    20 alpha electrons       20 beta electrons
       nuclear repulsion energy       172.5126440288 Hartrees.
 NAtoms=   11 NActive=   11 NUniq=   11 SFac= 1.00D+00 NAtFMM=   60 NAOKFM=F Big=F
 Integral buffers will be    131072 words long.
 Raffenetti 2 integral format.
 Two-electron integral symmetry is turned off.
 Standard density basis: Auto (5D, 7F)
   674 Density fitting functions
 Force inversion solution in PCM.
 ------------------------------------------------------------------------------
 Polarizable Continuum Model (PCM)
 =================================
 Model                : PCM.
 Atomic radii         : SMD-Coulomb.
 Polarization charges : Total charges.
 Charge compensation  : None.
 Solution method      : Matrix inversion.
 Cavity type          : VdW (van der Waals Surface) (Alpha=1.000).
 Cavity algorithm     : GePol (No added spheres)
                        Default sphere list used, NSphG=   11.
                        Lebedev-Laikov grids with approx.  5.0 points / Ang**2.
                        Smoothing algorithm: York/Karplus (Gamma=1.0000).
                        Polarization charges: spherical gaussians, with
                                              point-specific exponents (IZeta= 3).
                        Self-potential: point-specific (ISelfS= 7).
                        Self-field    : sphere-specific E.n sum rule (ISelfD= 2).
 1st derivatives      : Analytical E(r).r(x)/FMM algorithm (CHGder, D1EAlg=3).
                        Cavity 1st derivative terms included.
 2nd derivatives      : Analytical E(r).r(xy)/FMM algorithm (CHGder, D2EAlg=3).
                        Cavity 2nd derivative terms included.
 Solvent              : n,n-DiMethylFormamide, Eps=  37.219000 Eps(inf)=   2.046330
 ------------------------------------------------------------------------------
 Spheres list:
 ISph  on   Nord     Re0    Alpha      Xe            Ye            Ze
    1   O      1    2.2940  1.000      1.857041      0.032899      0.000031
    2   N      2    1.8900  1.000     -0.437292     -0.016000     -0.000005
    3   C      3    1.8500  1.000     -0.612170      1.419189     -0.000001
    4   C      4    1.8500  1.000     -1.633346     -0.827299     -0.000030
    5   C      5    1.8500  1.000      0.792772     -0.572901      0.000011
    6   H      6    1.2000  1.000     -1.169263      1.737456      0.886945
    7   H      7    1.2000  1.000      0.366307      1.896810      0.000016
    8   H      8    1.2000  1.000     -2.241144     -0.621221      0.887055
    9   H      9    1.2000  1.000     -1.360438     -1.883371     -0.000028
   10   H     10    1.2000  1.000     -2.241111     -0.621215     -0.887136
   11   H     11    1.2000  1.000      0.737278     -1.678708      0.000004
 ------------------------------------------------------------------------------
 ------------------------------------------------------------------------------
 Atomic radii for non-electrostatic terms: SMD-CDS.
 ------------------------------------------------------------------------------
 Nuclear repulsion after PCM non-electrostatic terms =      172.5131636896 Hartrees.
 One-electron integrals computed using PRISM.
 NBasis=   152 RedAO= T EigKep=  2.58D-04  NBF=   152
 NBsUse=   152 1.00D-06 EigRej= -1.00D+00 NBFU=   152
 NBasis=      152 NBas6D=      157 NTT=       11628   NTT6D=    12403
 NDBShl=      112 NDBF=        674 NDBF6D=      778  NNucDB=        0
 IDenFi=        2 ISolve=        0 FullAP=F BlkAPC=T NucTyp=        0
 TolInv= 1.00D-06 TolIt=  1.00D-10 IR12=0.
 FoFCou: FMM=F IPFlag=           0 FMFlag=           0 FMFlg1=           0
         NFxFlg=           0 DoJE=F BraDBF=T KetDBF=T FulRan=T
         wScrn=  0.000000 ICntrl=       600 IOpCl=  3 I1Cent=           6 NGrid=           0
         NMat0=    1 NMatS0=    778 NMatT0=    0 NMatD0=    1 NMtDS0=    0 NMtDT0=    0
 Symmetry not used in FoFCou.
 DBF EigKep=  1.19D-06 EigRej=  7.84D-07
 NDBF=    674  NBFD=   674
 NRank=   662 NBFDU=   662
 S*AI*S=  10.9087488301    
 ExpMin= 3.60D-02 ExpMax= 8.59D+03 ExpMxC= 1.30D+03 IAcc=3 IRadAn=         5 AccDes= 0.00D+00
 Harris functional with IExCor= 1009 and IRadAn=       5 diagonalized for initial guess.
 HarFok:  IExCor= 1009 AccDes= 0.00D+00 IRadAn=         5 IDoV= 1 UseB2=F ITyADJ=14
 ICtDFT=  3500011 ScaDFX=  1.000000  1.000000  1.000000  1.000000
 FoFCou: FMM=F IPFlag=           0 FMFlag=      100000 FMFlg1=           0
         NFxFlg=           0 DoJE=T BraDBF=F KetDBF=T FulRan=T
         wScrn=  0.000000 ICntrl=       500 IOpCl=  0 I1Cent=   200000004 NGrid=           0
         NMat0=    1 NMatS0=      1 NMatT0=    0 NMatD0=    1 NMtDS0=    0 NMtDT0=    0
 Symmetry not used in FoFCou.
 Requested convergence on RMS density matrix=1.00D-08 within  32 cycles.
 Requested convergence on MAX density matrix=1.00D-06.
 Requested convergence on             energy=1.00D-06.
 No special actions if energy rises.
 FoFCou: FMM=F IPFlag=           0 FMFlag=      100000 FMFlg1=           0
         NFxFlg=           0 DoJE=T BraDBF=T KetDBF=F FulRan=T
         wScrn=  0.000000 ICntrl=       500 IOpCl=  0 I1Cent=           5 NGrid=           0
         NMat0=    1 NMatS0=      1 NMatT0=    0 NMatD0=    1 NMtDS0=    0 NMtDT0=    0
 Symmetry not used in FoFCou.
 Inv3:  Mode=1 IEnd=     3151875.
 Iteration    1 A*A^-1 deviation from unit magnitude is 4.44D-15 for    380.
 Iteration    1 A*A^-1 deviation from orthogonality  is 1.73D-15 for    362    190.
 Iteration    1 A^-1*A deviation from unit magnitude is 4.00D-15 for    380.
 Iteration    1 A^-1*A deviation from orthogonality  is 4.33D-15 for    627    537.
 Error on total polarization charges =  0.05237
 SCF Done:  E(RM06L) =  -247.996439895     A.U. after   15 cycles
            NFock= 15  Conv=0.70D-08     -V/T= 2.0038
 SMD-CDS (non-electrostatic) energy       (kcal/mol) =       0.33
 (included in total energy above)
 QCSCF skips out because SCF is already converged.
 DoSCS=F DFT=T ScalE2(SS,OS)=  1.000000  1.000000
 Range of M.O.s used for correlation:     1   152
 NBasis=   152 NAE=    20 NBE=    20 NFC=     0 NFV=     0
 NROrb=    152 NOA=    20 NOB=    20 NVA=   132 NVB=   132

 **** Warning!!: The largest alpha MO coefficient is  0.20812080D+02

 Symmetrizing basis deriv contribution to polar:
 IMax=3 JMax=2 DiffMx= 0.00D+00
 G2DrvN: will do    12 centers at a time, making    1 passes.
 Calling FoFCou, ICntrl=  3507 FMM=F I1Cent=   4 AccDes= 0.00D+00.
 NEqPCM:  Using equilibrium solvation (IEInf=0, Eps=  37.2190, EpsInf=   2.0463)
 G2PCM: DoFxE=T DoFxN=T DoGrad=T DoDP/DQ/DG/TGxP=FFFF NFrqRd=   0 IEInf=0 SqF1=F DoCFld=F IF1Alg=4.
 G2DrvN: will do    12 centers at a time, making    1 passes.
 Calling FoFCou, ICntrl=  3507 FMM=F I1Cent=1004 AccDes= 0.00D+00.
 End of G2Drv F.D. properties file   721 does not exist.
 End of G2Drv F.D. properties file   722 does not exist.
 End of G2Drv F.D. properties file   788 does not exist.
          IDoAtm=11111111111
 NEqPCM:  Using equilibrium solvation (IEInf=0, Eps=  37.2190, EpsInf=   2.0463)
          Differentiating once with respect to nuclear coordinates.
 FoFCou: FMM=F IPFlag=           0 FMFlag=      100000 FMFlg1=           0
         NFxFlg=           0 DoJE=F BraDBF=T KetDBF=F FulRan=T
         wScrn=  0.000000 ICntrl=       500 IOpCl=  0 I1Cent=           5 NGrid=           0
         NMat0=   36 NMatS0=     36 NMatT0=    0 NMatD0=   36 NMtDS0=    0 NMtDT0=    0
 Symmetry not used in FoFCou.
          There are    36 degrees of freedom in the 1st order CPHF.  IDoFFX=6 NUNeed=     0.
     30 vectors produced by pass  0 Test12= 7.33D-15 2.78D-09 XBig12= 1.77D-01 1.26D-01.
 AX will form    30 AO Fock derivatives at one time.
     30 vectors produced by pass  1 Test12= 7.33D-15 2.78D-09 XBig12= 2.66D-02 5.73D-02.
     30 vectors produced by pass  2 Test12= 7.33D-15 2.78D-09 XBig12= 4.30D-04 3.77D-03.
     30 vectors produced by pass  3 Test12= 7.33D-15 2.78D-09 XBig12= 9.80D-06 4.19D-04.
     30 vectors produced by pass  4 Test12= 7.33D-15 2.78D-09 XBig12= 6.98D-08 3.78D-05.
     30 vectors produced by pass  5 Test12= 7.33D-15 2.78D-09 XBig12= 1.99D-10 1.44D-06.
     14 vectors produced by pass  6 Test12= 7.33D-15 2.78D-09 XBig12= 2.60D-13 6.44D-08.
 InvSVY:  IOpt=1 It=  1 EMax= 2.22D-15
 Solved reduced A of dimension   194 with    30 vectors.
 End of Minotr F.D. properties file   721 does not exist.
 End of Minotr F.D. properties file   722 does not exist.
 End of Minotr F.D. properties file   788 does not exist.

 **********************************************************************

            Population analysis using the SCF Density.

 **********************************************************************

 Alpha  occ. eigenvalues --  -18.90181 -14.17783 -10.09542 -10.06023  -9.98624
 Alpha  occ. eigenvalues --   -0.97044  -0.87060  -0.64789  -0.60630  -0.48074
 Alpha  occ. eigenvalues --   -0.43926  -0.40062  -0.39325  -0.33943  -0.33065
 Alpha  occ. eigenvalues --   -0.32308  -0.29758  -0.21530  -0.19598  -0.10631
 Alpha virt. eigenvalues --    0.00778   0.01935   0.02804   0.02828   0.05222
 Alpha virt. eigenvalues --    0.05546   0.06062   0.07472   0.07774   0.09039
 Alpha virt. eigenvalues --    0.10803   0.11377   0.12525   0.13238   0.13820
 Alpha virt. eigenvalues --    0.14132   0.15003   0.15281   0.17625   0.17908
 Alpha virt. eigenvalues --    0.19001   0.19483   0.21398   0.21703   0.23285
 Alpha virt. eigenvalues --    0.23808   0.26286   0.28180   0.28258   0.28869
 Alpha virt. eigenvalues --    0.29504   0.31240   0.32692   0.35524   0.40424
 Alpha virt. eigenvalues --    0.41015   0.45769   0.47772   0.49275   0.53586
 Alpha virt. eigenvalues --    0.56879   0.57680   0.59907   0.60438   0.63702
 Alpha virt. eigenvalues --    0.64451   0.66302   0.69543   0.71214   0.72420
 Alpha virt. eigenvalues --    0.73674   0.74919   0.86593   0.87429   0.89858
 Alpha virt. eigenvalues --    0.94851   0.99957   1.03219   1.11179   1.12506
 Alpha virt. eigenvalues --    1.12867   1.17034   1.21516   1.27262   1.27751
 Alpha virt. eigenvalues --    1.35859   1.43885   1.46617   1.48279   1.53393
 Alpha virt. eigenvalues --    1.56892   1.58601   1.59702   1.63137   1.64750
 Alpha virt. eigenvalues --    1.68965   1.70031   1.76146   1.77144   1.80471
 Alpha virt. eigenvalues --    1.84151   1.87524   1.89857   1.96657   1.99147
 Alpha virt. eigenvalues --    2.09533   2.11849   2.20003   2.20972   2.26862
 Alpha virt. eigenvalues --    2.41953   2.43517   2.46135   2.50639   2.52845
 Alpha virt. eigenvalues --    2.54079   2.57127   2.58123   2.61772   2.67285
 Alpha virt. eigenvalues --    2.69353   2.71400   2.72832   2.83379   2.88997
 Alpha virt. eigenvalues --    2.93415   2.95148   2.97460   3.03993   3.07763
 Alpha virt. eigenvalues --    3.18669   3.42043   3.46048   3.57230   3.65328
 Alpha virt. eigenvalues --    3.70635   3.77075   3.77529   3.84336   3.90102
 Alpha virt. eigenvalues --    4.05142   4.09113   4.97393   5.07832   5.19011
 Alpha virt. eigenvalues --    5.32982   5.90425  24.02946  24.08001  24.09272
 Alpha virt. eigenvalues --   35.74424  50.30096
          Condensed to atoms (all electrons):
               1          2          3          4          5          6
     1  O    8.343304  -0.219849  -0.008236   0.001411   0.417443  -0.011294
     2  N   -0.219849   7.075958   0.192544   0.303928   0.156119  -0.009187
     3  C   -0.008236   0.192544   6.752572  -0.401426   0.009604   0.051303
     4  C    0.001411   0.303928  -0.401426   5.060912  -0.132047   0.100104
     5  C    0.417443   0.156119   0.009604  -0.132047   5.142253  -0.061476
     6  H   -0.011294  -0.009187   0.051303   0.100104  -0.061476   0.833966
     7  H    0.008470  -0.057861   0.338933   0.016548  -0.013795  -0.025400
     8  H   -0.000264  -0.066290  -0.027022   0.419731  -0.029847   0.027175
     9  H    0.000661  -0.055947  -0.028423   0.437598   0.002949   0.009176
    10  H    0.002781  -0.056856   0.102785   0.310128   0.020833  -0.027783
    11  H   -0.031028  -0.251238  -0.044451   0.050238   0.353943   0.003525
               7          8          9         10         11
     1  O    0.008470  -0.000264   0.000661   0.002781  -0.031028
     2  N   -0.057861  -0.066290  -0.055947  -0.056856  -0.251238
     3  C    0.338933  -0.027022  -0.028423   0.102785  -0.044451
     4  C    0.016548   0.419731   0.437598   0.310128   0.050238
     5  C   -0.013795  -0.029847   0.002949   0.020833   0.353943
     6  H   -0.025400   0.027175   0.009176  -0.027783   0.003525
     7  H    0.674006   0.002790  -0.008224  -0.000436   0.011557
     8  H    0.002790   0.681680  -0.035087  -0.084463   0.003214
     9  H   -0.008224  -0.035087   0.619319  -0.037892  -0.001949
    10  H   -0.000436  -0.084463  -0.037892   0.679150  -0.007305
    11  H    0.011557   0.003214  -0.001949  -0.007305   0.896053
 Mulliken charges:
               1
     1  O   -0.503399
     2  N   -0.011321
     3  C   -0.938182
     4  C   -0.167124
     5  C    0.134021
     6  H    0.109891
     7  H    0.053413
     8  H    0.108384
     9  H    0.097818
    10  H    0.099059
    11  H    0.017440
 Sum of Mulliken charges =  -1.00000
 Mulliken charges with hydrogens summed into heavy atoms:
               1
     1  O   -0.503399
     2  N   -0.011321
     3  C   -0.774878
     4  C    0.138137
     5  C    0.151461
 APT charges:
               1
     1  O   -0.429370
     2  N    0.131001
     3  C   -1.530647
     4  C   -0.923910
     5  C   -0.253451
     6  H    0.387724
     7  H    0.270268
     8  H    0.379935
     9  H    0.339704
    10  H    0.356806
    11  H    0.271941
 Sum of APT charges =  -1.00000
 APT charges with hydrogens summed into heavy atoms:
               1
     1  O   -0.429370
     2  N    0.131001
     3  C   -0.872655
     4  C    0.152535
     5  C    0.018490
 Electronic spatial extent (au):  <R**2>=            448.2804
 Charge=             -1.0000 electrons
 Dipole moment (field-independent basis, Debye):
    X=             -1.7740    Y=             -7.0884    Z=              1.9664  Tot=              7.5670
 Quadrupole moment (field-independent basis, Debye-Ang):
   XX=            -46.4977   YY=            -43.1876   ZZ=            -36.8863
   XY=              6.0978   XZ=             -2.9170   YZ=              3.7247
 Traceless Quadrupole moment (field-independent basis, Debye-Ang):
   XX=             -4.3072   YY=             -0.9971   ZZ=              5.3043
   XY=              6.0978   XZ=             -2.9170   YZ=              3.7247
 Octapole moment (field-independent basis, Debye-Ang**2):
  XXX=             -2.3728  YYY=            -30.9578  ZZZ=              2.4796  XYY=             16.1365
  XXY=            -12.8393  XXZ=              3.9596  XZZ=              6.7938  YZZ=             -8.3802
  YYZ=              7.4906  XYZ=             -5.2863
 Hexadecapole moment (field-independent basis, Debye-Ang**3):
 XXXX=           -413.2341 YYYY=           -267.7351 ZZZZ=            -62.3352 XXXY=             15.8648
 XXXZ=             -7.3195 YYYX=             24.7755 YYYZ=             15.7605 ZZZX=             -4.2096
 ZZZY=              4.7372 XXYY=           -114.0883 XXZZ=            -71.8871 YYZZ=            -60.1371
 XXYZ=              6.8677 YYXZ=             -9.9547 ZZXY=              5.2965
 N-N= 1.725131636896D+02 E-N=-9.325206416400D+02  KE= 2.470481539246D+02
  Exact polarizability:       0.000       0.000       0.000       0.000       0.000       0.000
 Approx polarizability:     144.088     -20.167     105.478       7.188      -3.940      76.842
 D2PCM: PCM CHGder 2nd derivatives, FixD1E=F FixD2E=F DoIter=F DoCFld=F I1PDM=0
 Calling FoFJK, ICntrl=    100527 FMM=F ISym2X=0 I1Cent= 4 IOpClX= 0 NMat=1 NMatS=1 NMatT=0.
 -------------------------------------------------------------------
 Center     Atomic                   Forces (Hartrees/Bohr)
 Number     Number              X              Y              Z
 -------------------------------------------------------------------
      1        8           0.017752944    0.008352192   -0.000103226
      2        7           0.008502583    0.004726109    0.007411568
      3        6          -0.009757704    0.006397954   -0.015381312
      4        6           0.007761034    0.000222327   -0.000290236
      5        6          -0.025070218   -0.012568727    0.001062894
      6        1          -0.001274956   -0.002031054    0.005396100
      7        1           0.003354460   -0.001747063    0.003826586
      8        1          -0.000919840    0.000156897    0.000552925
      9        1          -0.000274626   -0.002022385    0.000942929
     10        1          -0.000830793    0.001066084   -0.000498497
     11        1           0.000757115   -0.002552334   -0.002919730
 -------------------------------------------------------------------
 Cartesian Forces:  Max     0.025070218 RMS     0.007473083
 FormGI is forming the generalized inverse of G from B-inverse, IUseBI=4.

 GradGradGradGradGradGradGradGradGradGradGradGradGradGradGradGradGradGrad
 Berny optimization.
 Internal  Forces:  Max     0.019559008 RMS     0.004870132
 Search for a local minimum.
 Step number   1 out of a maximum of   49
 All quantities printed in internal units (Hartrees-Bohrs-Radians)
 Mixed Optimization -- RFO/linear search
 Second derivative matrix not updated -- analytic derivatives used.
 ITU=  0
     Eigenvalues ---    0.00231   0.00263   0.00859   0.02247   0.03668
     Eigenvalues ---    0.05820   0.05872   0.07226   0.12502   0.13593
     Eigenvalues ---    0.14806   0.16221   0.16889   0.18103   0.21399
     Eigenvalues ---    0.21993   0.27300   0.31708   0.32344   0.32790
     Eigenvalues ---    0.32862   0.34254   0.35116   0.35768   0.38252
     Eigenvalues ---    0.48538   0.78770
 RFO step:  Lambda=-4.94967510D-03 EMin= 2.30557096D-03
 Linear search not attempted -- first point.
 Iteration  1 RMS(Cart)=  0.05892971 RMS(Int)=  0.00694211
 Iteration  2 RMS(Cart)=  0.00715635 RMS(Int)=  0.00172135
 Iteration  3 RMS(Cart)=  0.00008500 RMS(Int)=  0.00171919
 Iteration  4 RMS(Cart)=  0.00000052 RMS(Int)=  0.00171919
 Variable       Old X    -DE/DX   Delta X   Delta X   Delta X     New X
                                 (Linear)    (Quad)   (Total)
    R1        2.31417   0.01956   0.00000   0.03048   0.03048   2.34465
    R2        2.73217   0.00353   0.00000   0.02307   0.02307   2.75524
    R3        2.73113  -0.00442   0.00000  -0.00818  -0.00818   2.72295
    R4        2.55162  -0.00318   0.00000  -0.01920  -0.01920   2.53242
    R5        2.06864   0.00443   0.00000   0.02028   0.02028   2.08892
    R6        2.05758   0.00225   0.00000   0.01698   0.01698   2.07456
    R7        2.06906   0.00099   0.00000   0.00417   0.00417   2.07323
    R8        2.06125   0.00189   0.00000   0.00352   0.00352   2.06477
    R9        2.06906   0.00106   0.00000   0.00432   0.00432   2.07338
   R10        2.09230   0.00251   0.00000   0.00371   0.00371   2.09601
    A1        2.04557  -0.00294   0.00000  -0.01399  -0.01467   2.03089
    A2        2.11718   0.01364   0.00000   0.04919   0.04835   2.16553
    A3        2.12044  -0.01070   0.00000  -0.03521  -0.03585   2.08459
    A4        1.92854  -0.00688   0.00000  -0.07318  -0.07582   1.85272
    A5        1.90365  -0.00558   0.00000  -0.06216  -0.06485   1.83879
    A6        1.90687   0.00132   0.00000  -0.04538  -0.05248   1.85440
    A7        1.93235   0.00007   0.00000  -0.00127  -0.00129   1.93107
    A8        1.91393   0.00140   0.00000   0.01348   0.01344   1.92737
    A9        1.93235  -0.00066   0.00000   0.00016   0.00011   1.93246
   A10        1.89771  -0.00078   0.00000  -0.00647  -0.00647   1.89123
   A11        1.88901  -0.00045   0.00000  -0.01220  -0.01222   1.87679
   A12        1.89771   0.00041   0.00000   0.00599   0.00592   1.90363
   A13        2.19898   0.00174   0.00000   0.00197   0.00186   2.20084
   A14        2.13842  -0.00179   0.00000  -0.01266  -0.01277   2.12565
   A15        1.94579   0.00005   0.00000   0.01069   0.01058   1.95637
    D1        1.04516   0.00241   0.00000  -0.02856  -0.03083   1.01433
    D2       -3.14159  -0.00374   0.00000  -0.16895  -0.16490   2.97669
    D3       -2.09643   0.00138   0.00000  -0.09824  -0.10228  -2.19871
    D4       -0.00000  -0.00477   0.00000  -0.23863  -0.23635  -0.23635
    D5       -1.04756  -0.00011   0.00000  -0.02698  -0.02605  -1.07362
    D6       -3.14159  -0.00008   0.00000  -0.02681  -0.02585   3.11574
    D7        1.04757  -0.00106   0.00000  -0.04301  -0.04210   1.00547
    D8        2.09403   0.00092   0.00000   0.04284   0.04190   2.13593
    D9        0.00000   0.00095   0.00000   0.04301   0.04210   0.04210
   D10       -2.09402  -0.00003   0.00000   0.02681   0.02585  -2.06817
   D11        0.00000   0.00043   0.00000   0.06490   0.06532   0.06532
   D12       -3.14159   0.00338   0.00000   0.09222   0.09263  -3.04896
   D13        3.14159  -0.00064   0.00000  -0.00778  -0.00819   3.13340
   D14       -0.00000   0.00231   0.00000   0.01954   0.01912   0.01912
         Item               Value     Threshold  Converged?
 Maximum Force            0.019559     0.000450     NO 
 RMS     Force            0.004870     0.000300     NO 
 Maximum Displacement     0.229039     0.001800     NO 
 RMS     Displacement     0.062996     0.001200     NO 
 Predicted change in Energy=-2.808424D-03
 GradGradGradGradGradGradGradGradGradGradGradGradGradGradGradGradGradGrad

                          Input orientation:                          
 ---------------------------------------------------------------------
 Center     Atomic      Atomic             Coordinates (Angstroms)
 Number     Number       Type             X           Y           Z
 ---------------------------------------------------------------------
      1          8           0        1.881463   -0.005370   -0.029354
      2          7           0       -0.419166    0.002902    0.010653
      3          6           0       -0.625451    1.444625   -0.057757
      4          6           0       -1.606334   -0.813705    0.017113
      5          6           0        0.784718   -0.585289   -0.013056
      6          1           0       -1.246259    1.708361    0.818014
      7          1           0        0.362557    1.888470    0.121218
      8          1           0       -2.224550   -0.590450    0.895523
      9          1           0       -1.340369   -1.873133    0.043716
     10          1           0       -2.216018   -0.619436   -0.874158
     11          1           0        0.708042   -1.691336   -0.045051
 ---------------------------------------------------------------------
                    Distance matrix (angstroms):
                    1          2          3          4          5
     1  O    0.000000
     2  N    2.300991   0.000000
     3  C    2.896189   1.458012   0.000000
     4  C    3.580543   1.440922   2.463288   0.000000
     5  C    1.240734   1.340100   2.472069   2.402127   0.000000
     6  H    3.665727   2.060220   1.105411   2.670564   3.174331
     7  H    2.432360   2.044182   1.097812   3.345014   2.513112
     8  H    4.249360   2.096300   2.758150   1.097104   3.143444
     9  H    3.724792   2.090267   3.395426   1.092627   2.485510
    10  H    4.228489   2.097349   2.730707   1.097187   3.122032
    11  H    2.054177   2.035717   3.407729   2.475972   1.109163
                    6          7          8          9         10
     6  H    0.000000
     7  H    1.762457   0.000000
     8  H    2.499519   3.665749   0.000000
     9  H    3.665446   4.129845   1.775564   0.000000
    10  H    3.036860   3.732213   1.769939   1.783539   0.000000
    11  H    4.015235   3.600280   3.270585   2.058377   3.222812
                   11
    11  H    0.000000
 Symmetry turned off by external request.
 Stoichiometry    C3H6NO(1-)
 Framework group  C1[X(C3H6NO)]
 Deg. of freedom    27
 Full point group                 C1      NOp   1
 Rotational constants (GHZ):           9.5292275           4.2670118           3.0280259
 Standard basis: 6-311++G(d,p) (5D, 7F)
   152 basis functions,   234 primitive gaussians,   157 cartesian basis functions
    20 alpha electrons       20 beta electrons
       nuclear repulsion energy       172.1546137713 Hartrees.
 NAtoms=   11 NActive=   11 NUniq=   11 SFac= 1.00D+00 NAtFMM=   60 NAOKFM=F Big=F
 Integral buffers will be    131072 words long.
 Raffenetti 2 integral format.
 Two-electron integral symmetry is turned off.
 Standard density basis: Auto (5D, 7F)
   674 Density fitting functions
 ------------------------------------------------------------------------------
 Polarizable Continuum Model (PCM)
 =================================
 Model                : PCM.
 Atomic radii         : SMD-Coulomb.
 Polarization charges : Total charges.
 Charge compensation  : None.
 Solution method      : Matrix inversion.
 Cavity type          : VdW (van der Waals Surface) (Alpha=1.000).
 Cavity algorithm     : GePol (No added spheres)
                        Default sphere list used, NSphG=   11.
                        Lebedev-Laikov grids with approx.  5.0 points / Ang**2.
                        Smoothing algorithm: York/Karplus (Gamma=1.0000).
                        Polarization charges: spherical gaussians, with
                                              point-specific exponents (IZeta= 3).
                        Self-potential: point-specific (ISelfS= 7).
                        Self-field    : sphere-specific E.n sum rule (ISelfD= 2).
 1st derivatives      : Analytical E(r).r(x)/FMM algorithm (CHGder, D1EAlg=3).
                        Cavity 1st derivative terms included.
 Solvent              : n,n-DiMethylFormamide, Eps=  37.219000 Eps(inf)=   2.046330
 ------------------------------------------------------------------------------
 Spheres list:
 ISph  on   Nord     Re0    Alpha      Xe            Ye            Ze
    1   O      1    2.2940  1.000      1.881463     -0.005370     -0.029354
    2   N      2    1.8900  1.000     -0.419166      0.002902      0.010653
    3   C      3    1.8500  1.000     -0.625451      1.444625     -0.057757
    4   C      4    1.8500  1.000     -1.606334     -0.813705      0.017113
    5   C      5    1.8500  1.000      0.784718     -0.585289     -0.013056
    6   H      6    1.2000  1.000     -1.246259      1.708361      0.818014
    7   H      7    1.2000  1.000      0.362557      1.888470      0.121218
    8   H      8    1.2000  1.000     -2.224550     -0.590450      0.895523
    9   H      9    1.2000  1.000     -1.340369     -1.873133      0.043716
   10   H     10    1.2000  1.000     -2.216018     -0.619436     -0.874158
   11   H     11    1.2000  1.000      0.708042     -1.691336     -0.045051
 ------------------------------------------------------------------------------
 ------------------------------------------------------------------------------
 Atomic radii for non-electrostatic terms: SMD-CDS.
 ------------------------------------------------------------------------------
 Nuclear repulsion after PCM non-electrostatic terms =      172.1551943321 Hartrees.
 One-electron integrals computed using PRISM.
 NBasis=   152 RedAO= T EigKep=  2.62D-04  NBF=   152
 NBsUse=   152 1.00D-06 EigRej= -1.00D+00 NBFU=   152
 NBasis=      152 NBas6D=      157 NTT=       11628   NTT6D=    12403
 NDBShl=      112 NDBF=        674 NDBF6D=      778  NNucDB=        0
 IDenFi=        2 ISolve=        0 FullAP=F BlkAPC=T NucTyp=        0
 TolInv= 1.00D-06 TolIt=  1.00D-10 IR12=0.
 FoFCou: FMM=F IPFlag=           0 FMFlag=           0 FMFlg1=           0
         NFxFlg=           0 DoJE=F BraDBF=T KetDBF=T FulRan=T
         wScrn=  0.000000 ICntrl=       600 IOpCl=  3 I1Cent=           6 NGrid=           0
         NMat0=    1 NMatS0=    778 NMatT0=    0 NMatD0=    1 NMtDS0=    0 NMtDT0=    0
 Symmetry not used in FoFCou.
 DBF EigKep=  1.24D-06 EigRej=  7.95D-07
 NDBF=    674  NBFD=   674
 NRank=   662 NBFDU=   662
 S*AI*S=  10.9027304667    
 Initial guess from the checkpoint file:  "dmf_n1.chk"
 B after Tr=     0.014927   -0.002424   -0.021255
         Rot=    0.999970    0.006362   -0.003036    0.003055 Ang=   0.88 deg.
 Recovered     1 saved fitting vectors from chk file.
 ExpMin= 3.60D-02 ExpMax= 8.59D+03 ExpMxC= 1.30D+03 IAcc=3 IRadAn=         5 AccDes= 0.00D+00
 Harris functional with IExCor= 1009 and IRadAn=       5 diagonalized for initial guess.
 HarFok:  IExCor= 1009 AccDes= 0.00D+00 IRadAn=         5 IDoV= 1 UseB2=F ITyADJ=14
 ICtDFT=  3500011 ScaDFX=  1.000000  1.000000  1.000000  1.000000
 FoFCou: FMM=F IPFlag=           0 FMFlag=      100000 FMFlg1=           0
         NFxFlg=           0 DoJE=T BraDBF=F KetDBF=T FulRan=T
         wScrn=  0.000000 ICntrl=       500 IOpCl=  0 I1Cent=   200000004 NGrid=           0
         NMat0=    1 NMatS0=      1 NMatT0=    0 NMatD0=    1 NMtDS0=    0 NMtDT0=    0
 Symmetry not used in FoFCou.
 Requested convergence on RMS density matrix=1.00D-08 within  32 cycles.
 Requested convergence on MAX density matrix=1.00D-06.
 Requested convergence on             energy=1.00D-06.
 No special actions if energy rises.
 FoFCou: FMM=F IPFlag=           0 FMFlag=      100000 FMFlg1=           0
         NFxFlg=           0 DoJE=T BraDBF=T KetDBF=F FulRan=T
         wScrn=  0.000000 ICntrl=       500 IOpCl=  0 I1Cent=           5 NGrid=           0
         NMat0=    1 NMatS0=      1 NMatT0=    0 NMatD0=    1 NMtDS0=    0 NMtDT0=    0
 Symmetry not used in FoFCou.
 Inv3:  Mode=1 IEnd=     3115083.
 Iteration    1 A*A^-1 deviation from unit magnitude is 2.44D-15 for     78.
 Iteration    1 A*A^-1 deviation from orthogonality  is 2.45D-15 for    617      2.
 Iteration    1 A^-1*A deviation from unit magnitude is 2.44D-15 for     83.
 Iteration    1 A^-1*A deviation from orthogonality  is 1.67D-15 for    833    445.
 Error on total polarization charges =  0.04941
 SCF Done:  E(RM06L) =  -247.999117640     A.U. after   14 cycles
            NFock= 14  Conv=0.14D-08     -V/T= 2.0040
 SMD-CDS (non-electrostatic) energy       (kcal/mol) =       0.36
 (included in total energy above)
 QCSCF skips out because SCF is already converged.
 D1PCM: PCM CHGder 1st derivatives, ID1Alg=3 FixD1E=F DoIter=F DoCFld=F I1PDM=0.
 Calling FoFJK, ICntrl=      2527 FMM=F ISym2X=0 I1Cent= 4 IOpClX= 0 NMat=1 NMatS=1 NMatT=0.
 -------------------------------------------------------------------
 Center     Atomic                   Forces (Hartrees/Bohr)
 Number     Number              X              Y              Z
 -------------------------------------------------------------------
      1        8           0.000719514    0.000124804    0.000149434
      2        7          -0.000000761   -0.000367576    0.001555687
      3        6           0.000485650    0.000333675   -0.000603597
      4        6          -0.000007613   -0.000372834    0.000064212
      5        6          -0.000468702   -0.001033361   -0.001032111
      6        1          -0.000797928    0.000370611   -0.000255381
      7        1           0.000053770    0.001044807    0.000376824
      8        1          -0.000064574    0.000034095   -0.000037960
      9        1          -0.000128029   -0.000097819    0.000056505
     10        1          -0.000048142    0.000055161   -0.000009604
     11        1           0.000256815   -0.000091565   -0.000264009
 -------------------------------------------------------------------
 Cartesian Forces:  Max     0.001555687 RMS     0.000509889

 GradGradGradGradGradGradGradGradGradGradGradGradGradGradGradGradGradGrad
 Berny optimization.
 Using GEDIIS/GDIIS optimizer.
 FormGI is forming the generalized inverse of G from B-inverse, IUseBI=4.
 Internal  Forces:  Max     0.001780641 RMS     0.000578445
 Search for a local minimum.
 Step number   2 out of a maximum of   49
 All quantities printed in internal units (Hartrees-Bohrs-Radians)
 Mixed Optimization -- En-DIIS/RFO-DIIS
 Update second derivatives using D2CorX and points    1    2
 DE= -2.68D-03 DEPred=-2.81D-03 R= 9.53D-01
 TightC=F SS=  1.41D+00  RLast= 3.67D-01 DXNew= 5.0454D-01 1.1021D+00
 Trust test= 9.53D-01 RLast= 3.67D-01 DXMaxT set to 5.05D-01
 ITU=  1  0
 Use linear search instead of GDIIS.
     Eigenvalues ---    0.00235   0.00262   0.00856   0.02230   0.04022
     Eigenvalues ---    0.05818   0.05869   0.07220   0.12520   0.13824
     Eigenvalues ---    0.14791   0.16138   0.16889   0.18094   0.21231
     Eigenvalues ---    0.21864   0.26965   0.31697   0.32434   0.32767
     Eigenvalues ---    0.32860   0.34226   0.34958   0.35474   0.38004
     Eigenvalues ---    0.48818   0.77585
 RFO step:  Lambda=-5.14629534D-04 EMin= 2.34661067D-03
 Quartic linear search produced a step of  0.07061.
 Iteration  1 RMS(Cart)=  0.06989488 RMS(Int)=  0.00745754
 Iteration  2 RMS(Cart)=  0.00791822 RMS(Int)=  0.00027630
 Iteration  3 RMS(Cart)=  0.00008858 RMS(Int)=  0.00026511
 Iteration  4 RMS(Cart)=  0.00000004 RMS(Int)=  0.00026511
 Variable       Old X    -DE/DX   Delta X   Delta X   Delta X     New X
                                 (Linear)    (Quad)   (Total)
    R1        2.34465   0.00069   0.00215   0.00313   0.00529   2.34993
    R2        2.75524   0.00178   0.00163  -0.00505  -0.00342   2.75182
    R3        2.72295   0.00042  -0.00058   0.00063   0.00006   2.72301
    R4        2.53242   0.00092  -0.00136  -0.00075  -0.00211   2.53031
    R5        2.08892   0.00034   0.00143  -0.00430  -0.00286   2.08606
    R6        2.07456   0.00054   0.00120  -0.00089   0.00031   2.07487
    R7        2.07323   0.00002   0.00029  -0.00057  -0.00027   2.07295
    R8        2.06477   0.00006   0.00025  -0.00109  -0.00084   2.06392
    R9        2.07338   0.00004   0.00031   0.00094   0.00124   2.07462
   R10        2.09601   0.00009   0.00026  -0.00177  -0.00151   2.09451
    A1        2.03089  -0.00053  -0.00104  -0.00254  -0.00432   2.02658
    A2        2.16553   0.00106   0.00341  -0.00620  -0.00356   2.16197
    A3        2.08459  -0.00056  -0.00253   0.00476   0.00147   2.08606
    A4        1.85272   0.00073  -0.00535   0.01021   0.00459   1.85731
    A5        1.83879   0.00172  -0.00458   0.02314   0.01829   1.85708
    A6        1.85440  -0.00034  -0.00371   0.02233   0.01793   1.87233
    A7        1.93107  -0.00003  -0.00009  -0.00073  -0.00082   1.93025
    A8        1.92737   0.00026   0.00095  -0.00087   0.00007   1.92744
    A9        1.93246  -0.00007   0.00001  -0.00066  -0.00066   1.93181
   A10        1.89123  -0.00008  -0.00046   0.00296   0.00251   1.89374
   A11        1.87679  -0.00006  -0.00086   0.00002  -0.00084   1.87595
   A12        1.90363  -0.00003   0.00042  -0.00063  -0.00021   1.90342
   A13        2.20084   0.00018   0.00013  -0.00573  -0.00562   2.19522
   A14        2.12565  -0.00036  -0.00090   0.00417   0.00325   2.12889
   A15        1.95637   0.00018   0.00075   0.00185   0.00257   1.95894
    D1        1.01433  -0.00068  -0.00218  -0.16657  -0.16908   0.84525
    D2        2.97669  -0.00002  -0.01164  -0.12740  -0.13877   2.83792
    D3       -2.19871  -0.00109  -0.00722  -0.23157  -0.23907  -2.43778
    D4       -0.23635  -0.00044  -0.01669  -0.19240  -0.20876  -0.44512
    D5       -1.07362  -0.00008  -0.00184  -0.02087  -0.02266  -1.09627
    D6        3.11574  -0.00013  -0.00183  -0.02353  -0.02531   3.09044
    D7        1.00547  -0.00022  -0.00297  -0.02173  -0.02465   0.98082
    D8        2.13593   0.00024   0.00296   0.04141   0.04431   2.18024
    D9        0.04210   0.00019   0.00297   0.03874   0.04166   0.08377
   D10       -2.06817   0.00010   0.00183   0.04054   0.04232  -2.02585
   D11        0.06532   0.00036   0.00461   0.03307   0.03774   0.10306
   D12       -3.04896   0.00047   0.00654   0.02096   0.02755  -3.02141
   D13        3.13340  -0.00007  -0.00058  -0.03410  -0.03473   3.09866
   D14        0.01912   0.00005   0.00135  -0.04622  -0.04492  -0.02580
         Item               Value     Threshold  Converged?
 Maximum Force            0.001781     0.000450     NO 
 RMS     Force            0.000578     0.000300     NO 
 Maximum Displacement     0.263276     0.001800     NO 
 RMS     Displacement     0.075162     0.001200     NO 
 Predicted change in Energy=-3.215986D-04
 GradGradGradGradGradGradGradGradGradGradGradGradGradGradGradGradGradGrad

                          Input orientation:                          
 ---------------------------------------------------------------------
 Center     Atomic      Atomic             Coordinates (Angstroms)
 Number     Number       Type             X           Y           Z
 ---------------------------------------------------------------------
      1          8           0        1.897675   -0.027787   -0.093482
      2          7           0       -0.397758   -0.001998    0.034878
      3          6           0       -0.588923    1.438293   -0.062769
      4          6           0       -1.596188   -0.802055    0.038804
      5          6           0        0.796530   -0.602968   -0.038545
      6          1           0       -1.356363    1.702573    0.685413
      7          1           0        0.353905    1.898833    0.260538
      8          1           0       -2.212126   -0.570090    0.916376
      9          1           0       -1.345163   -1.864729    0.062616
     10          1           0       -2.202379   -0.596815   -0.853200
     11          1           0        0.709425   -1.707617   -0.063766
 ---------------------------------------------------------------------
                    Distance matrix (angstroms):
                    1          2          3          4          5
     1  O    0.000000
     2  N    2.299163   0.000000
     3  C    2.886781   1.456200   0.000000
     4  C    3.581071   1.440952   2.458468   0.000000
     5  C    1.243531   1.338985   2.467147   2.402233   0.000000
     6  H    3.766907   2.060991   1.103896   2.597842   3.236447
     7  H    2.494078   2.056473   1.097975   3.338687   2.558198
     8  H    4.266658   2.095638   2.761723   1.096960   3.156734
     9  H    3.730244   2.090003   3.390808   1.092180   2.487795
    10  H    4.208492   2.097415   2.714717   1.097844   3.107597
    11  H    2.057826   2.035858   3.403301   2.479196   1.108364
                    6          7          8          9         10
     6  H    0.000000
     7  H    1.773148   0.000000
     8  H    2.439400   3.620804   0.000000
     9  H    3.621277   4.134055   1.776689   0.000000
    10  H    2.893140   3.742093   1.769804   1.783576   0.000000
    11  H    4.056864   3.638413   3.284829   2.064458   3.214916
                   11
    11  H    0.000000
 Symmetry turned off by external request.
 Stoichiometry    C3H6NO(1-)
 Framework group  C1[X(C3H6NO)]
 Deg. of freedom    27
 Full point group                 C1      NOp   1
 Rotational constants (GHZ):           9.5839276           4.2609342           3.0256520
 Standard basis: 6-311++G(d,p) (5D, 7F)
   152 basis functions,   234 primitive gaussians,   157 cartesian basis functions
    20 alpha electrons       20 beta electrons
       nuclear repulsion energy       172.1348918337 Hartrees.
 NAtoms=   11 NActive=   11 NUniq=   11 SFac= 1.00D+00 NAtFMM=   60 NAOKFM=F Big=F
 Integral buffers will be    131072 words long.
 Raffenetti 2 integral format.
 Two-electron integral symmetry is turned off.
 Standard density basis: Auto (5D, 7F)
   674 Density fitting functions
 ------------------------------------------------------------------------------
 Polarizable Continuum Model (PCM)
 =================================
 Model                : PCM.
 Atomic radii         : SMD-Coulomb.
 Polarization charges : Total charges.
 Charge compensation  : None.
 Solution method      : Matrix inversion.
 Cavity type          : VdW (van der Waals Surface) (Alpha=1.000).
 Cavity algorithm     : GePol (No added spheres)
                        Default sphere list used, NSphG=   11.
                        Lebedev-Laikov grids with approx.  5.0 points / Ang**2.
                        Smoothing algorithm: York/Karplus (Gamma=1.0000).
                        Polarization charges: spherical gaussians, with
                                              point-specific exponents (IZeta= 3).
                        Self-potential: point-specific (ISelfS= 7).
                        Self-field    : sphere-specific E.n sum rule (ISelfD= 2).
 1st derivatives      : Analytical E(r).r(x)/FMM algorithm (CHGder, D1EAlg=3).
                        Cavity 1st derivative terms included.
 Solvent              : n,n-DiMethylFormamide, Eps=  37.219000 Eps(inf)=   2.046330
 ------------------------------------------------------------------------------
 Spheres list:
 ISph  on   Nord     Re0    Alpha      Xe            Ye            Ze
    1   O      1    2.2940  1.000      1.897675     -0.027787     -0.093482
    2   N      2    1.8900  1.000     -0.397758     -0.001998      0.034878
    3   C      3    1.8500  1.000     -0.588923      1.438293     -0.062769
    4   C      4    1.8500  1.000     -1.596188     -0.802055      0.038804
    5   C      5    1.8500  1.000      0.796530     -0.602968     -0.038545
    6   H      6    1.2000  1.000     -1.356363      1.702573      0.685413
    7   H      7    1.2000  1.000      0.353905      1.898833      0.260538
    8   H      8    1.2000  1.000     -2.212126     -0.570090      0.916376
    9   H      9    1.2000  1.000     -1.345163     -1.864729      0.062616
   10   H     10    1.2000  1.000     -2.202379     -0.596815     -0.853200
   11   H     11    1.2000  1.000      0.709425     -1.707617     -0.063766
 ------------------------------------------------------------------------------
 ------------------------------------------------------------------------------
 Atomic radii for non-electrostatic terms: SMD-CDS.
 ------------------------------------------------------------------------------
 Nuclear repulsion after PCM non-electrostatic terms =      172.1354387626 Hartrees.
 One-electron integrals computed using PRISM.
 NBasis=   152 RedAO= T EigKep=  2.74D-04  NBF=   152
 NBsUse=   152 1.00D-06 EigRej= -1.00D+00 NBFU=   152
 NBasis=      152 NBas6D=      157 NTT=       11628   NTT6D=    12403
 NDBShl=      112 NDBF=        674 NDBF6D=      778  NNucDB=        0
 IDenFi=        2 ISolve=        0 FullAP=F BlkAPC=T NucTyp=        0
 TolInv= 1.00D-06 TolIt=  1.00D-10 IR12=0.
 FoFCou: FMM=F IPFlag=           0 FMFlag=           0 FMFlg1=           0
         NFxFlg=           0 DoJE=F BraDBF=T KetDBF=T FulRan=T
         wScrn=  0.000000 ICntrl=       600 IOpCl=  3 I1Cent=           6 NGrid=           0
         NMat0=    1 NMatS0=    778 NMatT0=    0 NMatD0=    1 NMtDS0=    0 NMtDT0=    0
 Symmetry not used in FoFCou.
 DBF EigKep=  1.34D-06 EigRej=  7.87D-07
 NDBF=    674  NBFD=   674
 NRank=   662 NBFDU=   662
 S*AI*S=  10.9200818036    
 Initial guess from the checkpoint file:  "dmf_n1.chk"
 B after Tr=     0.025759   -0.012822   -0.018987
         Rot=    0.999957    0.000303   -0.008668    0.003210 Ang=   1.06 deg.
 Recovered     1 saved fitting vectors from chk file.
 ExpMin= 3.60D-02 ExpMax= 8.59D+03 ExpMxC= 1.30D+03 IAcc=3 IRadAn=         5 AccDes= 0.00D+00
 Harris functional with IExCor= 1009 and IRadAn=       5 diagonalized for initial guess.
 HarFok:  IExCor= 1009 AccDes= 0.00D+00 IRadAn=         5 IDoV= 1 UseB2=F ITyADJ=14
 ICtDFT=  3500011 ScaDFX=  1.000000  1.000000  1.000000  1.000000
 FoFCou: FMM=F IPFlag=           0 FMFlag=      100000 FMFlg1=           0
         NFxFlg=           0 DoJE=T BraDBF=F KetDBF=T FulRan=T
         wScrn=  0.000000 ICntrl=       500 IOpCl=  0 I1Cent=   200000004 NGrid=           0
         NMat0=    1 NMatS0=      1 NMatT0=    0 NMatD0=    1 NMtDS0=    0 NMtDT0=    0
 Symmetry not used in FoFCou.
 Requested convergence on RMS density matrix=1.00D-08 within  32 cycles.
 Requested convergence on MAX density matrix=1.00D-06.
 Requested convergence on             energy=1.00D-06.
 No special actions if energy rises.
 FoFCou: FMM=F IPFlag=           0 FMFlag=      100000 FMFlg1=           0
         NFxFlg=           0 DoJE=T BraDBF=T KetDBF=F FulRan=T
         wScrn=  0.000000 ICntrl=       500 IOpCl=  0 I1Cent=           5 NGrid=           0
         NMat0=    1 NMatS0=      1 NMatT0=    0 NMatD0=    1 NMtDS0=    0 NMtDT0=    0
 Symmetry not used in FoFCou.
 Inv3:  Mode=1 IEnd=     3176523.
 Iteration    1 A*A^-1 deviation from unit magnitude is 2.89D-15 for    379.
 Iteration    1 A*A^-1 deviation from orthogonality  is 1.69D-15 for    627    143.
 Iteration    1 A^-1*A deviation from unit magnitude is 2.78D-15 for    434.
 Iteration    1 A^-1*A deviation from orthogonality  is 5.35D-15 for    579    549.
 Error on total polarization charges =  0.04942
 SCF Done:  E(RM06L) =  -247.999349922     A.U. after   15 cycles
            NFock= 15  Conv=0.24D-08     -V/T= 2.0041
 SMD-CDS (non-electrostatic) energy       (kcal/mol) =       0.34
 (included in total energy above)
 QCSCF skips out because SCF is already converged.
 D1PCM: PCM CHGder 1st derivatives, ID1Alg=3 FixD1E=F DoIter=F DoCFld=F I1PDM=0.
 Calling FoFJK, ICntrl=      2527 FMM=F ISym2X=0 I1Cent= 4 IOpClX= 0 NMat=1 NMatS=1 NMatT=0.
 -------------------------------------------------------------------
 Center     Atomic                   Forces (Hartrees/Bohr)
 Number     Number              X              Y              Z
 -------------------------------------------------------------------
      1        8          -0.000997430   -0.000705739    0.000059233
      2        7          -0.000518222    0.000057938    0.000151929
      3        6          -0.000149132    0.000923153   -0.000971423
      4        6          -0.000241438   -0.000520832    0.000115560
      5        6           0.001205460    0.000451443   -0.000023958
      6        1           0.000601335   -0.000199455    0.000378161
      7        1          -0.000083250    0.000446800    0.000376819
      8        1           0.000031754   -0.000063675   -0.000062057
      9        1          -0.000120529   -0.000144827   -0.000118158
     10        1           0.000058337   -0.000065966    0.000030890
     11        1           0.000213116   -0.000178840    0.000063006
 -------------------------------------------------------------------
 Cartesian Forces:  Max     0.001205460 RMS     0.000448951

 GradGradGradGradGradGradGradGradGradGradGradGradGradGradGradGradGradGrad
 Berny optimization.
 Using GEDIIS/GDIIS optimizer.
 FormGI is forming the generalized inverse of G from B-inverse, IUseBI=4.
 Internal  Forces:  Max     0.001215912 RMS     0.000392853
 Search for a local minimum.
 Step number   3 out of a maximum of   49
 All quantities printed in internal units (Hartrees-Bohrs-Radians)
 Mixed Optimization -- En-DIIS/RFO-DIIS
 Swapping is turned off.
 Update second derivatives using D2CorX and points    2    3
 DE= -2.32D-04 DEPred=-3.22D-04 R= 7.22D-01
 TightC=F SS=  1.41D+00  RLast= 4.03D-01 DXNew= 8.4853D-01 1.2077D+00
 Trust test= 7.22D-01 RLast= 4.03D-01 DXMaxT set to 8.49D-01
 ITU=  1  1  0
     Eigenvalues ---    0.00257   0.00364   0.00841   0.02236   0.04249
     Eigenvalues ---    0.05821   0.05867   0.07222   0.12523   0.13887
     Eigenvalues ---    0.14729   0.16081   0.16890   0.17950   0.21143
     Eigenvalues ---    0.21994   0.26831   0.31677   0.32310   0.32767
     Eigenvalues ---    0.32862   0.33972   0.34671   0.35205   0.38020
     Eigenvalues ---    0.48523   0.77934
 En-DIIS/RFO-DIIS/Sim-DIIS IScMMF=       -3 using points:     3    2
 RFO step:  Lambda=-5.50753577D-05.
 DidBck=F Rises=F RFO-DIIS coefs:    0.81219    0.18781
 Iteration  1 RMS(Cart)=  0.01553444 RMS(Int)=  0.00028579
 Iteration  2 RMS(Cart)=  0.00026329 RMS(Int)=  0.00003589
 Iteration  3 RMS(Cart)=  0.00000006 RMS(Int)=  0.00003589
 Variable       Old X    -DE/DX   Delta X   Delta X   Delta X     New X
                                 (Linear)    (Quad)   (Total)
    R1        2.34993  -0.00122  -0.00099  -0.00129  -0.00228   2.34765
    R2        2.75182   0.00112   0.00064   0.00490   0.00554   2.75736
    R3        2.72301   0.00067  -0.00001   0.00170   0.00169   2.72470
    R4        2.53031   0.00057   0.00040   0.00117   0.00157   2.53188
    R5        2.08606  -0.00022   0.00054   0.00057   0.00111   2.08717
    R6        2.07487   0.00023  -0.00006   0.00143   0.00137   2.07624
    R7        2.07295  -0.00008   0.00005  -0.00021  -0.00015   2.07280
    R8        2.06392   0.00011   0.00016   0.00017   0.00033   2.06425
    R9        2.07462  -0.00007  -0.00023  -0.00010  -0.00033   2.07429
   R10        2.09451   0.00016   0.00028   0.00062   0.00090   2.09541
    A1        2.02658   0.00055   0.00081   0.00103   0.00197   2.02854
    A2        2.16197  -0.00000   0.00067   0.00025   0.00104   2.16301
    A3        2.08606  -0.00054  -0.00028  -0.00221  -0.00236   2.08370
    A4        1.85731  -0.00071  -0.00086  -0.00464  -0.00550   1.85181
    A5        1.85708   0.00058  -0.00343   0.00146  -0.00197   1.85511
    A6        1.87233  -0.00049  -0.00337  -0.00853  -0.01190   1.86043
    A7        1.93025   0.00005   0.00015   0.00055   0.00071   1.93096
    A8        1.92744   0.00021  -0.00001   0.00102   0.00101   1.92845
    A9        1.93181  -0.00006   0.00012  -0.00057  -0.00044   1.93136
   A10        1.89374  -0.00006  -0.00047   0.00012  -0.00035   1.89339
   A11        1.87595  -0.00000   0.00016  -0.00013   0.00003   1.87598
   A12        1.90342  -0.00015   0.00004  -0.00104  -0.00100   1.90241
   A13        2.19522   0.00012   0.00106   0.00081   0.00187   2.19709
   A14        2.12889  -0.00029  -0.00061  -0.00179  -0.00240   2.12650
   A15        1.95894   0.00017  -0.00048   0.00101   0.00053   1.95947
    D1        0.84525   0.00045   0.03175   0.01100   0.04276   0.88802
    D2        2.83792  -0.00016   0.02606  -0.00016   0.02592   2.86384
    D3       -2.43778   0.00043   0.04490   0.00314   0.04803  -2.38975
    D4       -0.44512  -0.00018   0.03921  -0.00801   0.03119  -0.41393
    D5       -1.09627   0.00002   0.00426  -0.00689  -0.00264  -1.09891
    D6        3.09044  -0.00007   0.00475  -0.00807  -0.00332   3.08712
    D7        0.98082   0.00001   0.00463  -0.00706  -0.00243   0.97839
    D8        2.18024  -0.00000  -0.00832   0.00040  -0.00792   2.17232
    D9        0.08377  -0.00009  -0.00783  -0.00078  -0.00860   0.07516
   D10       -2.02585  -0.00001  -0.00795   0.00023  -0.00771  -2.03357
   D11        0.10306  -0.00001  -0.00709   0.00548  -0.00161   0.10144
   D12       -3.02141  -0.00012  -0.00517   0.00354  -0.00164  -3.02304
   D13        3.09866   0.00005   0.00652  -0.00238   0.00415   3.10281
   D14       -0.02580  -0.00005   0.00844  -0.00431   0.00412  -0.02168
         Item               Value     Threshold  Converged?
 Maximum Force            0.001216     0.000450     NO 
 RMS     Force            0.000393     0.000300     NO 
 Maximum Displacement     0.053141     0.001800     NO 
 RMS     Displacement     0.015543     0.001200     NO 
 Predicted change in Energy=-2.770666D-05
 GradGradGradGradGradGradGradGradGradGradGradGradGradGradGradGradGradGrad

                          Input orientation:                          
 ---------------------------------------------------------------------
 Center     Atomic      Atomic             Coordinates (Angstroms)
 Number     Number       Type             X           Y           Z
 ---------------------------------------------------------------------
      1          8           0        1.894723   -0.026319   -0.082157
      2          7           0       -0.402218   -0.000449    0.032411
      3          6           0       -0.596390    1.442359   -0.065896
      4          6           0       -1.598285   -0.805646    0.034904
      5          6           0        0.794022   -0.600284   -0.033267
      6          1           0       -1.333154    1.706079    0.713534
      7          1           0        0.355356    1.902509    0.233412
      8          1           0       -2.215474   -0.578350    0.912717
      9          1           0       -1.344165   -1.867823    0.055874
     10          1           0       -2.204857   -0.600846   -0.856725
     11          1           0        0.709074   -1.705591   -0.057944
 ---------------------------------------------------------------------
                    Distance matrix (angstroms):
                    1          2          3          4          5
     1  O    0.000000
     2  N    2.299942   0.000000
     3  C    2.891872   1.459131   0.000000
     4  C    3.580804   1.441848   2.463226   0.000000
     5  C    1.242324   1.339815   2.471174   2.402072   0.000000
     6  H    3.748802   2.059808   1.104481   2.615262   3.225197
     7  H    2.487893   2.058050   1.098700   3.345179   2.554901
     8  H    4.264766   2.096856   2.768101   1.096878   3.154747
     9  H    3.728349   2.091626   3.395778   1.092354   2.487257
    10  H    4.211484   2.097749   2.717953   1.097668   3.109881
    11  H    2.055798   2.037312   3.407916   2.478391   1.108841
                    6          7          8          9         10
     6  H    0.000000
     7  H    1.766399   0.000000
     8  H    2.456986   3.636658   0.000000
     9  H    3.633926   4.139480   1.776541   0.000000
    10  H    2.923608   3.742977   1.769616   1.782936   0.000000
    11  H    4.050353   3.637085   3.281133   2.062781   3.217065
                   11
    11  H    0.000000
 Symmetry turned off by external request.
 Stoichiometry    C3H6NO(1-)
 Framework group  C1[X(C3H6NO)]
 Deg. of freedom    27
 Full point group                 C1      NOp   1
 Rotational constants (GHZ):           9.5397565           4.2618146           3.0227774
 Standard basis: 6-311++G(d,p) (5D, 7F)
   152 basis functions,   234 primitive gaussians,   157 cartesian basis functions
    20 alpha electrons       20 beta electrons
       nuclear repulsion energy       172.0470410878 Hartrees.
 NAtoms=   11 NActive=   11 NUniq=   11 SFac= 1.00D+00 NAtFMM=   60 NAOKFM=F Big=F
 Integral buffers will be    131072 words long.
 Raffenetti 2 integral format.
 Two-electron integral symmetry is turned off.
 Standard density basis: Auto (5D, 7F)
   674 Density fitting functions
 ------------------------------------------------------------------------------
 Polarizable Continuum Model (PCM)
 =================================
 Model                : PCM.
 Atomic radii         : SMD-Coulomb.
 Polarization charges : Total charges.
 Charge compensation  : None.
 Solution method      : Matrix inversion.
 Cavity type          : VdW (van der Waals Surface) (Alpha=1.000).
 Cavity algorithm     : GePol (No added spheres)
                        Default sphere list used, NSphG=   11.
                        Lebedev-Laikov grids with approx.  5.0 points / Ang**2.
                        Smoothing algorithm: York/Karplus (Gamma=1.0000).
                        Polarization charges: spherical gaussians, with
                                              point-specific exponents (IZeta= 3).
                        Self-potential: point-specific (ISelfS= 7).
                        Self-field    : sphere-specific E.n sum rule (ISelfD= 2).
 1st derivatives      : Analytical E(r).r(x)/FMM algorithm (CHGder, D1EAlg=3).
                        Cavity 1st derivative terms included.
 Solvent              : n,n-DiMethylFormamide, Eps=  37.219000 Eps(inf)=   2.046330
 ------------------------------------------------------------------------------
 Spheres list:
 ISph  on   Nord     Re0    Alpha      Xe            Ye            Ze
    1   O      1    2.2940  1.000      1.894723     -0.026319     -0.082157
    2   N      2    1.8900  1.000     -0.402218     -0.000449      0.032411
    3   C      3    1.8500  1.000     -0.596390      1.442359     -0.065896
    4   C      4    1.8500  1.000     -1.598285     -0.805646      0.034904
    5   C      5    1.8500  1.000      0.794022     -0.600284     -0.033267
    6   H      6    1.2000  1.000     -1.333154      1.706079      0.713534
    7   H      7    1.2000  1.000      0.355356      1.902509      0.233412
    8   H      8    1.2000  1.000     -2.215474     -0.578350      0.912717
    9   H      9    1.2000  1.000     -1.344165     -1.867823      0.055874
   10   H     10    1.2000  1.000     -2.204857     -0.600846     -0.856725
   11   H     11    1.2000  1.000      0.709074     -1.705591     -0.057944
 ------------------------------------------------------------------------------
 ------------------------------------------------------------------------------
 Atomic radii for non-electrostatic terms: SMD-CDS.
 ------------------------------------------------------------------------------
 Nuclear repulsion after PCM non-electrostatic terms =      172.0476021114 Hartrees.
 One-electron integrals computed using PRISM.
 NBasis=   152 RedAO= T EigKep=  2.73D-04  NBF=   152
 NBsUse=   152 1.00D-06 EigRej= -1.00D+00 NBFU=   152
 NBasis=      152 NBas6D=      157 NTT=       11628   NTT6D=    12403
 NDBShl=      112 NDBF=        674 NDBF6D=      778  NNucDB=        0
 IDenFi=        2 ISolve=        0 FullAP=F BlkAPC=T NucTyp=        0
 TolInv= 1.00D-06 TolIt=  1.00D-10 IR12=0.
 FoFCou: FMM=F IPFlag=           0 FMFlag=           0 FMFlg1=           0
         NFxFlg=           0 DoJE=F BraDBF=T KetDBF=T FulRan=T
         wScrn=  0.000000 ICntrl=       600 IOpCl=  3 I1Cent=           6 NGrid=           0
         NMat0=    1 NMatS0=    778 NMatT0=    0 NMatD0=    1 NMtDS0=    0 NMtDT0=    0
 Symmetry not used in FoFCou.
 DBF EigKep=  1.32D-06 EigRej=  7.86D-07
 NDBF=    674  NBFD=   674
 NRank=   662 NBFDU=   662
 S*AI*S=  10.9173092439    
 Initial guess from the checkpoint file:  "dmf_n1.chk"
 B after Tr=    -0.005252    0.001793    0.002966
         Rot=    0.999999    0.000399    0.001615   -0.000434 Ang=   0.20 deg.
 Recovered     1 saved fitting vectors from chk file.
 ExpMin= 3.60D-02 ExpMax= 8.59D+03 ExpMxC= 1.30D+03 IAcc=3 IRadAn=         5 AccDes= 0.00D+00
 Harris functional with IExCor= 1009 and IRadAn=       5 diagonalized for initial guess.
 HarFok:  IExCor= 1009 AccDes= 0.00D+00 IRadAn=         5 IDoV= 1 UseB2=F ITyADJ=14
 ICtDFT=  3500011 ScaDFX=  1.000000  1.000000  1.000000  1.000000
 FoFCou: FMM=F IPFlag=           0 FMFlag=      100000 FMFlg1=           0
         NFxFlg=           0 DoJE=T BraDBF=F KetDBF=T FulRan=T
         wScrn=  0.000000 ICntrl=       500 IOpCl=  0 I1Cent=   200000004 NGrid=           0
         NMat0=    1 NMatS0=      1 NMatT0=    0 NMatD0=    1 NMtDS0=    0 NMtDT0=    0
 Symmetry not used in FoFCou.
 Requested convergence on RMS density matrix=1.00D-08 within  32 cycles.
 Requested convergence on MAX density matrix=1.00D-06.
 Requested convergence on             energy=1.00D-06.
 No special actions if energy rises.
 FoFCou: FMM=F IPFlag=           0 FMFlag=      100000 FMFlg1=           0
         NFxFlg=           0 DoJE=T BraDBF=T KetDBF=F FulRan=T
         wScrn=  0.000000 ICntrl=       500 IOpCl=  0 I1Cent=           5 NGrid=           0
         NMat0=    1 NMatS0=      1 NMatT0=    0 NMatD0=    1 NMtDS0=    0 NMtDT0=    0
 Symmetry not used in FoFCou.
 Inv3:  Mode=1 IEnd=     3145728.
 Iteration    1 A*A^-1 deviation from unit magnitude is 3.44D-15 for    766.
 Iteration    1 A*A^-1 deviation from orthogonality  is 2.41D-15 for    546    174.
 Iteration    1 A^-1*A deviation from unit magnitude is 3.33D-15 for    766.
 Iteration    1 A^-1*A deviation from orthogonality  is 3.81D-15 for    576    546.
 Error on total polarization charges =  0.04934
 SCF Done:  E(RM06L) =  -247.999372303     A.U. after   14 cycles
            NFock= 14  Conv=0.21D-08     -V/T= 2.0041
 SMD-CDS (non-electrostatic) energy       (kcal/mol) =       0.35
 (included in total energy above)
 QCSCF skips out because SCF is already converged.
 D1PCM: PCM CHGder 1st derivatives, ID1Alg=3 FixD1E=F DoIter=F DoCFld=F I1PDM=0.
 Calling FoFJK, ICntrl=      2527 FMM=F ISym2X=0 I1Cent= 4 IOpClX= 0 NMat=1 NMatS=1 NMatT=0.
 -------------------------------------------------------------------
 Center     Atomic                   Forces (Hartrees/Bohr)
 Number     Number              X              Y              Z
 -------------------------------------------------------------------
      1        8          -0.000148220   -0.000110539   -0.000027279
      2        7           0.000076994   -0.000073064    0.000027544
      3        6          -0.000044228    0.000116502    0.000074854
      4        6           0.000003605    0.000051445    0.000002593
      5        6           0.000155229    0.000102040   -0.000018977
      6        1          -0.000078320   -0.000021659   -0.000077512
      7        1           0.000018167   -0.000072019    0.000020182
      8        1           0.000002023   -0.000006436    0.000003414
      9        1           0.000010705    0.000003127    0.000005338
     10        1           0.000004850   -0.000003433   -0.000001044
     11        1          -0.000000803    0.000014035   -0.000009113
 -------------------------------------------------------------------
 Cartesian Forces:  Max     0.000155229 RMS     0.000061469

 GradGradGradGradGradGradGradGradGradGradGradGradGradGradGradGradGradGrad
 Berny optimization.
 Using GEDIIS/GDIIS optimizer.
 FormGI is forming the generalized inverse of G from B-inverse, IUseBI=4.
 Internal  Forces:  Max     0.000183248 RMS     0.000049171
 Search for a local minimum.
 Step number   4 out of a maximum of   49
 All quantities printed in internal units (Hartrees-Bohrs-Radians)
 Mixed Optimization -- En-DIIS/RFO-DIIS
 Swapping is turned off.
 Update second derivatives using D2CorX and points    2    3    4
 DE= -2.24D-05 DEPred=-2.77D-05 R= 8.08D-01
 TightC=F SS=  1.41D+00  RLast= 7.93D-02 DXNew= 1.4270D+00 2.3781D-01
 Trust test= 8.08D-01 RLast= 7.93D-02 DXMaxT set to 8.49D-01
 ITU=  1  1  1  0
     Eigenvalues ---    0.00257   0.00436   0.00853   0.02236   0.04140
     Eigenvalues ---    0.05819   0.05869   0.07228   0.12517   0.13801
     Eigenvalues ---    0.14789   0.16098   0.16889   0.18041   0.21144
     Eigenvalues ---    0.22083   0.26637   0.31616   0.32068   0.32775
     Eigenvalues ---    0.32859   0.33926   0.34567   0.35202   0.38069
     Eigenvalues ---    0.47906   0.77114
 En-DIIS/RFO-DIIS/Sim-DIIS IScMMF=       -3 using points:     4    3    2
 RFO step:  Lambda=-3.18792867D-06.
 DidBck=F Rises=F RFO-DIIS coefs:    0.88352    0.16530   -0.04881
 Iteration  1 RMS(Cart)=  0.00585867 RMS(Int)=  0.00003788
 Iteration  2 RMS(Cart)=  0.00003534 RMS(Int)=  0.00000818
 Iteration  3 RMS(Cart)=  0.00000000 RMS(Int)=  0.00000818
 Variable       Old X    -DE/DX   Delta X   Delta X   Delta X     New X
                                 (Linear)    (Quad)   (Total)
    R1        2.34765  -0.00018   0.00052  -0.00066  -0.00014   2.34752
    R2        2.75736   0.00004  -0.00081   0.00101   0.00020   2.75756
    R3        2.72470  -0.00004  -0.00019   0.00010  -0.00009   2.72460
    R4        2.53188   0.00001  -0.00029   0.00016  -0.00013   2.53175
    R5        2.08717  -0.00001  -0.00027  -0.00005  -0.00032   2.08685
    R6        2.07624  -0.00001  -0.00014   0.00018   0.00004   2.07628
    R7        2.07280   0.00000   0.00000  -0.00002  -0.00001   2.07279
    R8        2.06425  -0.00000  -0.00008   0.00002  -0.00005   2.06419
    R9        2.07429  -0.00000   0.00010  -0.00006   0.00004   2.07433
   R10        2.09541  -0.00001  -0.00018   0.00014  -0.00004   2.09537
    A1        2.02854  -0.00007  -0.00044   0.00030  -0.00017   2.02837
    A2        2.16301   0.00007  -0.00030   0.00004  -0.00028   2.16273
    A3        2.08370  -0.00001   0.00035  -0.00010   0.00022   2.08392
    A4        1.85181   0.00003   0.00086  -0.00153  -0.00066   1.85114
    A5        1.85511  -0.00013   0.00112  -0.00129  -0.00017   1.85494
    A6        1.86043   0.00008   0.00226  -0.00115   0.00112   1.86155
    A7        1.93096  -0.00000  -0.00012   0.00021   0.00009   1.93105
    A8        1.92845  -0.00001  -0.00011   0.00002  -0.00010   1.92835
    A9        1.93136   0.00001   0.00002  -0.00006  -0.00004   1.93133
   A10        1.89339   0.00000   0.00016   0.00003   0.00019   1.89359
   A11        1.87598   0.00000  -0.00004   0.00013   0.00009   1.87607
   A12        1.90241   0.00001   0.00011  -0.00034  -0.00023   1.90218
   A13        2.19709   0.00006  -0.00049   0.00031  -0.00018   2.19691
   A14        2.12650  -0.00002   0.00044  -0.00022   0.00022   2.12671
   A15        1.95947  -0.00003   0.00006  -0.00009  -0.00003   1.95944
    D1        0.88802  -0.00008  -0.01323  -0.00071  -0.01395   0.87407
    D2        2.86384  -0.00003  -0.00979  -0.00325  -0.01305   2.85079
    D3       -2.38975  -0.00008  -0.01726   0.00128  -0.01598  -2.40574
    D4       -0.41393  -0.00004  -0.01382  -0.00126  -0.01508  -0.42901
    D5       -1.09891  -0.00000  -0.00080  -0.00019  -0.00099  -1.09990
    D6        3.08712   0.00001  -0.00085  -0.00038  -0.00123   3.08589
    D7        0.97839   0.00001  -0.00092   0.00007  -0.00085   0.97754
    D8        2.17232  -0.00000   0.00309  -0.00210   0.00099   2.17331
    D9        0.07516   0.00001   0.00304  -0.00228   0.00075   0.07591
   D10       -2.03357   0.00001   0.00296  -0.00183   0.00113  -2.03243
   D11        0.10144  -0.00003   0.00203  -0.00225  -0.00022   0.10123
   D12       -3.02304   0.00001   0.00154  -0.00234  -0.00080  -3.02385
   D13        3.10281  -0.00004  -0.00218  -0.00017  -0.00235   3.10046
   D14       -0.02168  -0.00000  -0.00267  -0.00026  -0.00293  -0.02461
         Item               Value     Threshold  Converged?
 Maximum Force            0.000183     0.000450     YES
 RMS     Force            0.000049     0.000300     YES
 Maximum Displacement     0.022012     0.001800     NO 
 RMS     Displacement     0.005859     0.001200     NO 
 Predicted change in Energy=-1.550350D-06
 GradGradGradGradGradGradGradGradGradGradGradGradGradGradGradGradGradGrad

                          Input orientation:                          
 ---------------------------------------------------------------------
 Center     Atomic      Atomic             Coordinates (Angstroms)
 Number     Number       Type             X           Y           Z
 ---------------------------------------------------------------------
      1          8           0        1.895721   -0.027960   -0.087450
      2          7           0       -0.400682   -0.000556    0.032758
      3          6           0       -0.593680    1.442443   -0.066642
      4          6           0       -1.597528   -0.804503    0.036282
      5          6           0        0.794916   -0.601269   -0.035135
      6          1           0       -1.340816    1.704531    0.703166
      7          1           0        0.354301    1.902183    0.245060
      8          1           0       -2.213772   -0.576671    0.914612
      9          1           0       -1.344378   -1.866892    0.056754
     10          1           0       -2.204590   -0.599131   -0.854908
[...]
 Variable       Old X    -DE/DX   Delta X   Delta X   Delta X     New X
                                 (Linear)    (Quad)   (Total)
    R1        2.34748  -0.00001   0.00000  -0.00002  -0.00002   2.34747
    R2        2.75753   0.00000   0.00000   0.00001   0.00001   2.75754
    R3        2.72460   0.00000   0.00000   0.00000   0.00000   2.72460
    R4        2.53175   0.00000   0.00000   0.00001   0.00001   2.53176
    R5        2.08688  -0.00000   0.00000   0.00001   0.00001   2.08688
    R6        2.07626  -0.00000   0.00000  -0.00000  -0.00000   2.07626
    R7        2.07279   0.00000   0.00000   0.00000   0.00000   2.07279
    R8        2.06422  -0.00000   0.00000   0.00000   0.00000   2.06422
    R9        2.07433   0.00000   0.00000  -0.00000  -0.00000   2.07433
   R10        2.09539  -0.00000   0.00000  -0.00000  -0.00000   2.09539
    A1        2.02837  -0.00001   0.00000  -0.00003  -0.00003   2.02834
    A2        2.16281   0.00000   0.00000   0.00003   0.00003   2.16284
    A3        2.08385   0.00000   0.00000   0.00000   0.00000   2.08385
    A4        1.85155  -0.00000   0.00000  -0.00001  -0.00001   1.85154
    A5        1.85518   0.00000   0.00000  -0.00001  -0.00001   1.85517
    A6        1.86160  -0.00000   0.00000  -0.00004  -0.00004   1.86157
    A7        1.93102   0.00000   0.00000  -0.00000  -0.00000   1.93101
    A8        1.92839  -0.00000   0.00000   0.00000   0.00000   1.92839
    A9        1.93134  -0.00000   0.00000   0.00000   0.00000   1.93134
   A10        1.89354   0.00000   0.00000  -0.00000  -0.00000   1.89354
   A11        1.87604   0.00000   0.00000   0.00000   0.00000   1.87604
   A12        1.90223   0.00000   0.00000   0.00000   0.00000   1.90223
   A13        2.19701   0.00000   0.00000   0.00002   0.00002   2.19703
   A14        2.12667  -0.00000   0.00000  -0.00001  -0.00001   2.12666
   A15        1.95939  -0.00000   0.00000  -0.00002  -0.00002   1.95937
    D1        0.87645   0.00000   0.00000   0.00027   0.00027   0.87672
    D2        2.85352   0.00000   0.00000   0.00022   0.00022   2.85374
    D3       -2.40331   0.00000   0.00000   0.00029   0.00029  -2.40302
    D4       -0.42624   0.00000   0.00000   0.00024   0.00024  -0.42600
    D5       -1.09971   0.00000   0.00000   0.00004   0.00004  -1.09967
    D6        3.08614   0.00000   0.00000   0.00005   0.00005   3.08618
    D7        0.97769   0.00000   0.00000   0.00004   0.00004   0.97773
    D8        2.17344  -0.00000   0.00000   0.00002   0.00002   2.17346
    D9        0.07610  -0.00000   0.00000   0.00003   0.00003   0.07613
   D10       -2.03234  -0.00000   0.00000   0.00002   0.00002  -2.03232
   D11        0.10156   0.00000   0.00000   0.00001   0.00001   0.10157
   D12       -3.02342  -0.00000   0.00000   0.00001   0.00001  -3.02341
   D13        3.10086   0.00000   0.00000   0.00003   0.00003   3.10089
   D14       -0.02412  -0.00000   0.00000   0.00003   0.00003  -0.02409
         Item               Value     Threshold  Converged?
 Maximum Force            0.000009     0.000450     YES
 RMS     Force            0.000002     0.000300     YES
 Maximum Displacement     0.000380     0.001800     YES
 RMS     Displacement     0.000101     0.001200     YES
 Predicted change in Energy=-9.364615D-10
 Optimization completed.
    -- Stationary point found.
                           ----------------------------
                           !   Optimized Parameters   !
                           ! (Angstroms and Degrees)  !
 --------------------------                            --------------------------
 ! Name  Definition              Value          Derivative Info.                !
 --------------------------------------------------------------------------------
 ! R1    R(1,5)                  1.2422         -DE/DX =    0.0                 !
 ! R2    R(2,3)                  1.4592         -DE/DX =    0.0                 !
 ! R3    R(2,4)                  1.4418         -DE/DX =    0.0                 !
 ! R4    R(2,5)                  1.3397         -DE/DX =    0.0                 !
 ! R5    R(3,6)                  1.1043         -DE/DX =    0.0                 !
 ! R6    R(3,7)                  1.0987         -DE/DX =    0.0                 !
 ! R7    R(4,8)                  1.0969         -DE/DX =    0.0                 !
 ! R8    R(4,9)                  1.0923         -DE/DX =    0.0                 !
 ! R9    R(4,10)                 1.0977         -DE/DX =    0.0                 !
 ! R10   R(5,11)                 1.1088         -DE/DX =    0.0                 !
 ! A1    A(3,2,4)              116.2169         -DE/DX =    0.0                 !
 ! A2    A(3,2,5)              123.9197         -DE/DX =    0.0                 !
 ! A3    A(4,2,5)              119.3957         -DE/DX =    0.0                 !
 ! A4    A(2,3,6)              106.0858         -DE/DX =    0.0                 !
 ! A5    A(2,3,7)              106.2941         -DE/DX =    0.0                 !
 ! A6    A(6,3,7)              106.662          -DE/DX =    0.0                 !
 ! A7    A(2,4,8)              110.639          -DE/DX =    0.0                 !
 ! A8    A(2,4,9)              110.4884         -DE/DX =    0.0                 !
 ! A9    A(2,4,10)             110.6577         -DE/DX =    0.0                 !
 ! A10   A(8,4,9)              108.4919         -DE/DX =    0.0                 !
 ! A11   A(8,4,10)             107.4894         -DE/DX =    0.0                 !
 ! A12   A(9,4,10)             108.9896         -DE/DX =    0.0                 !
 ! A13   A(1,5,2)              125.8796         -DE/DX =    0.0                 !
 ! A14   A(1,5,11)             121.8489         -DE/DX =    0.0                 !
 ! A15   A(2,5,11)             112.2645         -DE/DX =    0.0                 !
 ! D1    D(4,2,3,6)             50.2169         -DE/DX =    0.0                 !
 ! D2    D(4,2,3,7)            163.4947         -DE/DX =    0.0                 !
 ! D3    D(5,2,3,6)           -137.6994         -DE/DX =    0.0                 !
 ! D4    D(5,2,3,7)            -24.4216         -DE/DX =    0.0                 !
 ! D5    D(3,2,4,8)            -63.0088         -DE/DX =    0.0                 !
 ! D6    D(3,2,4,9)            176.8226         -DE/DX =    0.0                 !
 ! D7    D(3,2,4,10)            56.0178         -DE/DX =    0.0                 !
 ! D8    D(5,2,4,8)            124.5288         -DE/DX =    0.0                 !
 ! D9    D(5,2,4,9)              4.3602         -DE/DX =    0.0                 !
 ! D10   D(5,2,4,10)          -116.4446         -DE/DX =    0.0                 !
 ! D11   D(3,2,5,1)              5.8191         -DE/DX =    0.0                 !
 ! D12   D(3,2,5,11)          -173.2291         -DE/DX =    0.0                 !
 ! D13   D(4,2,5,1)            177.6661         -DE/DX =    0.0                 !
 ! D14   D(4,2,5,11)            -1.3821         -DE/DX =    0.0                 !
 --------------------------------------------------------------------------------
 GradGradGradGradGradGradGradGradGradGradGradGradGradGradGradGradGradGrad


 ----------------------------------------------------------------------

 Electric dipole moment (input orientation):
 (Debye = 10**-18 statcoulomb cm , SI units = C m)
                  (au)            (Debye)         (10**-30 SI)
   Tot        0.306294D+01      0.778521D+01      0.259687D+02
   x         -0.109613D+01     -0.278609D+01     -0.929341D+01
   y         -0.268410D+01     -0.682230D+01     -0.227567D+02
   z          0.987773D+00      0.251067D+01      0.837469D+01

 Dipole polarizability, Alpha (input orientation).
 (esu units = cm**3 , SI units = C**2 m**2 J**-1)
 Alpha(0;0):
               (au)            (10**-24 esu)      (10**-40 SI)
   iso        0.992773D+02      0.147114D+02      0.163686D+02
   aniso      0.455854D+02      0.675506D+01      0.751602D+01
   xx         0.113578D+03      0.168305D+02      0.187265D+02
   yx        -0.165141D+02     -0.244714D+01     -0.272281D+01
   yy         0.102117D+03      0.151322D+02      0.168369D+02
   zx         0.784023D+01      0.116180D+01      0.129268D+01
   zy        -0.102620D+02     -0.152067D+01     -0.169197D+01
   zz         0.821369D+02      0.121714D+02      0.135425D+02

 ----------------------------------------------------------------------

 Dipole orientation:
     8          3.18922467         -1.01466134         -1.28855632
     7         -0.66176193          0.23366668          0.29211125
     6         -1.70529418          1.29940992         -2.02719803
     6         -2.34166867          0.13796448          2.43504919
     6          1.60227090         -0.89016592          0.43677280
     1         -2.57366471          3.11880345         -1.48794032
     1         -0.08327504          1.75084278         -3.24215888
     1         -2.90205448          2.04893958          3.01001531
     1         -1.41934557         -0.78327144          4.03556592
     1         -4.07222005         -0.90346954          1.96233568
     1          1.93560894         -1.76588604          2.31097855

 Electric dipole moment (dipole orientation):
 (Debye = 10**-18 statcoulomb cm , SI units = C m)
                  (au)            (Debye)         (10**-30 SI)
   Tot        0.306294D+01      0.778521D+01      0.259687D+02
   x          0.000000D+00      0.000000D+00      0.000000D+00
   y          0.000000D+00      0.000000D+00      0.000000D+00
   z          0.306294D+01      0.778521D+01      0.259687D+02

 Dipole polarizability, Alpha (dipole orientation).
 (esu units = cm**3 , SI units = C**2 m**2 J**-1)
 Alpha(0;0):
               (au)            (10**-24 esu)      (10**-40 SI)
   iso        0.992773D+02      0.147114D+02      0.163686D+02
   aniso      0.455854D+02      0.675506D+01      0.751602D+01
   xx         0.122790D+03      0.181956D+02      0.202454D+02
   yx        -0.977109D+01     -0.144793D+01     -0.161104D+01
   yy         0.799021D+02      0.118403D+02      0.131741D+02
   zx         0.109410D+02      0.162129D+01      0.180393D+01
   zy        -0.219304D+01     -0.324975D+00     -0.361584D+00
   zz         0.951397D+02      0.140982D+02      0.156864D+02

 ----------------------------------------------------------------------
 Unable to Open any file for archive entry.
 1\1\GINC-CN1114\Freq\RM06L\6-311++G(d,p)/Auto\C3H6N1O1(1-)\QUACH062\28
 -Nov-2024\0\\#N Geom=AllCheck Guess=TCheck SCRF=Check GenChk RM06L/6-3
 11++G(d,p)/Auto Freq\\Title Card Required\\-1,1\O,1.8955782953,-0.0278
 192806,-0.0864589534\N,-0.4009176225,-0.0005670682,0.0328853531\C,-0.5
 941666429,1.4423947569,-0.0663250714\C,-1.5976109535,-0.8047353461,0.0
 360743724\C,0.7947638544,-0.6011336537,-0.0348226353\H,-1.3396186058,1
 .7050205826,0.7049529534\H,0.3544840906,1.9024371153,0.2428491234\H,-2
 .2141218776,-0.5769940097,0.9142401109\H,-1.3443026077,-1.8670980745,0
 .0566766178\H,-2.2044898148,-0.599462082,-0.8552627807\H,0.7090358846,
 -1.7064039401,-0.0579470904\\Version=ES64L-G16RevC.01\HF=-247.9993738\
 RMSD=3.205e-09\RMSF=4.239e-06\ZeroPoint=0.0872927\Thermal=0.0930369\ET
 ot=-247.9063369\HTot=-247.9053928\GTot=-247.940512\Dipole=-1.1960906,-
 2.7398154,0.9952151\DipoleDeriv=-2.499321,0.3764086,-0.134551,-0.91607
 38,-0.4434091,-0.0859715,0.1173505,-0.0200971,-0.519953,-1.4456939,0.0
 976123,-0.000058,-0.1455046,-0.1473308,-0.1161844,0.1522891,0.2320887,
 -0.2837935,-0.4753591,-0.0064418,-0.0440803,0.2894769,-0.5217091,0.085
 9306,-0.3422279,0.248739,-0.4099947,0.8393506,0.2062917,-0.000171,0.26
 43075,0.2162249,-0.0340055,-0.00716,0.035878,0.4405358,2.9911487,-0.42
 41235,0.0668422,0.5395138,0.3984803,0.1986692,-0.1955592,0.1204127,0.0
 590201,0.0291637,-0.015912,0.2697466,-0.0178702,-0.0158804,0.0031073,0
 .4898158,-0.2474917,-0.2963761,-0.21134,-0.161285,-0.1772802,-0.011040
 2,-0.0194687,-0.0667094,-0.2139462,-0.2552565,0.0622861,-0.1354258,-0.
 0390996,0.0993003,0.0258469,0.0568495,-0.0987496,0.2024354,-0.0300256,
 -0.1520952,0.0403949,0.1026454,-0.0045987,-0.0376715,-0.1868029,0.0098
 964,0.0104376,0.0107768,0.1176312,-0.1621567,-0.0493577,-0.0838068,0.0
 515349,0.0792355,0.0978938,-0.249125,0.0108386,-0.1550003,0.0292386,-0
 .0867383,0.008657,-0.0425198,-0.4161891,0.0061232,0.0356899,-0.1058629
 ,0.1377397\Polar=113.5778387,-16.5141237,102.1172807,7.84023,-10.26198
 65,82.1368911\Quadrupole=-2.8208234,-0.5828955,3.4037189,3.7297313,-1.
 4821191,3.3573653\PG=C01 [X(C3H6N1O1)]\NImag=0\\0.55897137,0.23946626,
 0.20257668,-0.02579601,-0.00994786,0.03059246,-0.09589865,-0.00118584,
 0.00533996,0.74297603,-0.03709310,0.01077475,0.00496258,-0.04525640,0.
 59436229,0.00934064,0.00285502,0.01408028,-0.02977420,0.01265197,0.108
 83454,0.00033768,-0.00469946,0.00166424,-0.09975974,0.01141660,0.00424
 623,0.48390944,0.00820715,0.01194175,-0.00181182,0.01239066,-0.1875749
 3,0.02525131,0.04196491,0.35812747,-0.00924616,-0.00863147,-0.00318057
 ,0.00936092,-0.01501289,-0.03411820,-0.07147404,0.08026740,0.22739006,
 0.00884135,0.00688068,-0.00052194,-0.18975163,-0.06160468,0.00088489,0
 .00440825,-0.00277304,0.00109369,0.52222759,0.01415129,0.00202213,-0.0
 0133944,-0.05878878,-0.14538346,0.00216773,-0.02874966,-0.02372736,-0.
 00054875,-0.04886945,0.57569946,0.00001694,-0.00098835,0.01108659,-0.0
 0042176,0.00119280,-0.06140116,0.00263126,0.00164447,-0.00065022,-0.00
 359189,-0.00108163,0.54469983,-0.45393504,-0.20716745,0.01894283,-0.29
 546863,0.11546498,0.01127248,0.00410155,0.00804494,0.00893290,-0.05150
 172,-0.00779891,0.00355175,0.84345572,-0.19866670,-0.21465100,0.008200
 05,0.11991522,-0.17641398,-0.00843553,0.03754278,-0.04163819,0.0071190
 0,-0.01820391,0.01157472,0.00128140,0.08666245,0.68901853,0.01744834,0
 .00866934,-0.06215207,0.01815992,-0.01368390,-0.04250176,-0.00408694,0
 .00670004,0.00279841,0.00043786,0.00099588,-0.01137608,-0.03343059,0.0
 0401631,0.15491979,0.00122384,0.00353131,-0.00042243,-0.00679337,0.005
 89812,0.00269822,-0.14540932,0.02864091,0.11298630,0.00042592,-0.00167
 767,-0.00163961,-0.00071585,-0.00297570,0.00153528,0.16780620,0.001465
 77,0.00205237,-0.00075279,0.03193088,-0.02378385,-0.02584635,0.0196850
 6,-0.04869539,-0.03138578,0.00257746,0.00124798,-0.00119372,-0.0068838
 1,-0.00418418,-0.00201156,-0.04172946,0.07078612,0.00426900,0.00357018
 ,-0.00047996,-0.00242714,0.00411167,0.00020661,0.15013191,-0.05498927,
 -0.15504354,0.00005844,0.00032372,0.00156454,-0.00630920,-0.00296335,0
 .00043098,-0.13555775,0.04716413,0.15032072,-0.00010456,0.00281042,-0.
 00023395,0.00358568,0.00159927,0.00045491,-0.24227369,-0.09946985,-0.0
 5400621,0.00099895,-0.00098073,-0.00007690,-0.00253540,0.00140965,0.00
 130042,-0.01679685,-0.00800254,-0.00882896,0.25721684,0.00151989,0.002
 69245,0.00016172,-0.03471182,-0.02380004,-0.01046559,-0.07320774,-0.07
 903098,-0.02960930,0.00357963,-0.00575760,-0.00090040,-0.00504685,0.00
 033446,0.00018765,0.00674684,0.00314443,0.00289457,0.10267889,0.103757
 13,0.00290423,0.00306870,-0.00147303,0.00158387,0.00737156,-0.00315044
 ,-0.08468372,-0.05466242,-0.04457003,0.00074574,-0.00015385,0.00032262
 ,-0.00337325,-0.00374816,0.00167556,0.02021045,0.01092631,0.00335842,0
 .06231283,0.03682402,0.04306111,-0.00484619,-0.00051904,-0.00200363,-0
 .03045093,0.00365108,0.02157843,0.00051223,0.00219694,-0.00021512,-0.1
 1519823,0.03099491,0.10766589,0.00428280,-0.00550287,0.00441134,0.0005
 0833,-0.00038800,-0.00046586,0.00006197,0.00009474,-0.00022679,0.13894
 623,-0.00191973,0.00045720,-0.00042654,-0.01622669,0.00251111,0.016059
 10,-0.00104926,0.00209605,0.00074811,0.03301604,-0.06172400,-0.0491462
 8,0.00207505,-0.00266474,0.00107151,0.00081593,0.00055710,-0.00060044,
 -0.00001789,0.00026149,0.00004956,-0.02842415,0.06065605,0.00148304,0.
 00055746,-0.00030907,0.00369025,0.00172221,0.00769144,-0.00037729,0.00
 003993,-0.00005463,0.11045121,-0.04869440,-0.21602640,-0.00346132,0.00
 103699,-0.00020450,0.00036239,0.00057507,-0.00033117,-0.00024936,0.000
 19444,0.00008998,-0.12289087,0.05041790,0.22858123,0.00066513,0.000447
 72,-0.00016263,0.00726827,-0.03102027,0.00104729,-0.00392762,0.0006342
 6,-0.00028683,-0.06717370,0.07015439,-0.00157763,-0.00126279,-0.003847
 68,0.00022564,0.00009667,0.00007202,-0.00010679,-0.00032974,-0.0015488
 2,0.00012290,-0.00346213,0.01490024,-0.00251229,0.07171418,-0.00161297
 ,0.00025074,0.00018697,0.00182214,-0.02319378,0.00155910,-0.00507897,0
 .00110754,-0.00092847,0.06054488,-0.29568872,0.00451136,0.00677719,-0.
 00004325,-0.00024398,0.00030306,0.00022378,0.00015105,0.00014158,-0.00
 170128,-0.00002927,0.00099332,-0.00425712,0.00131715,-0.06416974,0.325
 41365,0.00000585,-0.00008299,-0.00009020,-0.00034070,-0.00058019,-0.00
 228215,0.00100929,0.00079921,0.00041320,-0.00105863,0.00459292,-0.0460
 5514,-0.00005790,0.00031824,0.00009136,-0.00063696,0.00023715,0.000100
 44,0.00002697,0.00004411,0.00110488,0.00516831,-0.02411887,0.00193196,
 0.00085313,-0.00528123,0.04327663,-0.00514983,-0.00109114,0.00273214,-
 0.03113606,0.00364822,-0.02185525,0.00142048,0.00206611,0.00077884,-0.
 11216678,0.02713033,-0.10658291,0.00530077,-0.00490344,-0.00532147,0.0
 0002241,-0.00026194,-0.00020984,-0.00000306,0.00003351,0.00029614,0.00
 948642,-0.00307419,0.01355343,-0.00324220,0.00059062,-0.00498196,0.135
 34513,-0.00120903,0.00068404,0.00045700,-0.01544173,0.00256047,-0.0154
 6763,0.00000382,0.00272442,-0.00042966,0.02873954,-0.05837657,0.044385
 32,0.00165122,-0.00276890,-0.00127236,-0.00009592,-0.00014952,0.000141
 45,0.00020089,0.00004938,0.00030402,-0.00343625,0.00160687,-0.00704230
 ,0.01419434,-0.00303225,0.02402736,-0.02453561,0.05633583,-0.00245779,
 -0.00112885,0.00004410,-0.00484870,-0.00116329,0.00781287,0.00055806,-
 0.00055961,0.00019452,-0.10870071,0.04363285,-0.21992816,0.00424438,-0
 .00058776,-0.00079242,0.00010511,0.00010824,-0.00075637,0.00003428,-0.
 00008693,0.00005710,-0.01322878,0.00641601,-0.02135937,0.00230786,-0.0
 0124040,0.00157243,0.12189469,-0.04555119,0.23321405,-0.01010510,-0.03
 847346,0.00046142,-0.00457096,0.03329617,0.00010636,-0.00331925,-0.001
 90299,0.00207571,-0.00111001,0.00443430,0.00002486,-0.05172142,-0.0114
 2981,-0.00067981,-0.00036797,0.00153455,-0.00055381,0.00017986,-0.0001
 3826,0.00010761,0.00015952,-0.00009535,-0.00004920,-0.00034608,-0.0003
 1112,0.00001259,0.00012272,-0.00007127,0.00009162,0.07107869,-0.024308
 83,-0.01880112,0.00031013,0.00555235,-0.03005857,-0.00032913,0.0021719
 1,0.00466961,-0.00158818,-0.00388715,0.00011341,0.00029502,0.00622120,
 -0.25856348,-0.00442894,0.00054258,-0.00119884,0.00019629,-0.00036969,
 0.00005055,0.00004952,0.00033932,0.00050000,-0.00012444,0.00018355,0.0
 0092068,0.00004429,0.00039753,0.00036625,0.00016094,0.01315722,0.30200
 151,0.00203191,0.00205883,0.01188147,-0.00032242,-0.00157251,0.0048279
 8,0.00038099,-0.00267924,0.00682099,0.00020134,0.00010496,-0.00223642,
 -0.00031208,-0.00623719,-0.04288927,0.00035899,0.00217931,0.00062932,-
 0.00073403,0.00075570,-0.00047616,0.00020708,-0.00047005,-0.00000945,0
 .00008937,-0.00000229,-0.00006340,-0.00030383,0.00044799,-0.00005875,-
 0.00159734,0.00541449,0.02157369\\0.00000692,0.00000027,0.00000153,-0.
 00000020,0.00000089,-0.00000085,0.00000633,-0.00000149,-0.00000267,-0.
 00000011,0.00000089,0.00000100,-0.00001152,-0.00000695,0.00000419,0.00
 000103,0.00000391,-0.00000843,0.00000608,-0.00000099,-0.00000486,-0.00
 000192,0.00000603,-0.00000051,-0.00000368,0.00000117,0.00000465,0.0000
 0008,0.00000041,-0.00000030,-0.00000301,-0.00000415,0.00000625\\\@
 The archive entry for this job was punched.


 CONFIDENCE IS WHAT YOU FEEL BEFORE YOU FULLY
 COMPREHEND THE SITUATION.
 Job cpu time:       0 days  0 hours 57 minutes  0.3 seconds.
 Elapsed time:       0 days  0 hours  0 minutes 30.3 seconds.
 File lengths (MBytes):  RWF=     52 Int=      0 D2E=      0 Chk=     12 Scr=      1
 Normal termination of Gaussian 16 at Thu Nov 28 13:17:37 2024.
13305.46user 122.70system 2:14.13elapsed 10011%CPU (0avgtext+0avgdata 6773128maxresident)k
312inputs+208872outputs (15993major+7686843minor)pagefaults 0swaps
