 Entering Gaussian System, Link 0=g16
 Initial command:
 /common/software/install/migrated/gaussian/g16.c01.avx2/g16/l1.exe "/tmp/quach062/28170035/Gau-596639.inp" -scrdir="/tmp/quach062/28170035/"
 Entering Link 1 = /common/software/install/migrated/gaussian/g16.c01.avx2/g16/l1.exe PID=    596640.
  
 Copyright (c) 1988-2019, Gaussian, Inc.  All Rights Reserved.
  
 This is part of the Gaussian(R) 16 program.  It is based on
 the Gaussian(R) 09 system (copyright 2009, Gaussian, Inc.),
 the Gaussian(R) 03 system (copyright 2003, Gaussian, Inc.),
 the Gaussian(R) 98 system (copyright 1998, Gaussian, Inc.),
 the Gaussian(R) 94 system (copyright 1995, Gaussian, Inc.),
 the Gaussian 92(TM) system (copyright 1992, Gaussian, Inc.),
 the Gaussian 90(TM) system (copyright 1990, Gaussian, Inc.),
 the Gaussian 88(TM) system (copyright 1988, Gaussian, Inc.),
 the Gaussian 86(TM) system (copyright 1986, Carnegie Mellon
 University), and the Gaussian 82(TM) system (copyright 1983,
 Carnegie Mellon University). Gaussian is a federally registered
 trademark of Gaussian, Inc.
  
 This software contains proprietary and confidential information,
 including trade secrets, belonging to Gaussian, Inc.
  
 This software is provided under written license and may be
 used, copied, transmitted, or stored only in accord with that
 written license.
  
 The following legend is applicable only to US Government
 contracts under FAR:
  
                    RESTRICTED RIGHTS LEGEND
  
 Use, reproduction and disclosure by the US Government is
 subject to restrictions as set forth in subparagraphs (a)
 and (c) of the Commercial Computer Software - Restricted
 Rights clause in FAR 52.227-19.
  
 Gaussian, Inc.
 340 Quinnipiac St., Bldg. 40, Wallingford CT 06492
  
  
 ---------------------------------------------------------------
 Warning -- This program may not be used in any manner that
 competes with the business of Gaussian, Inc. or will provide
 assistance to any competitor of Gaussian, Inc.  The licensee
 of this program is prohibited from giving any competitor of
 Gaussian, Inc. access to this program.  By using this program,
 the user acknowledges that Gaussian, Inc. is engaged in the
 business of creating and licensing software in the field of
 computational chemistry and represents and warrants to the
 licensee that it is not a competitor of Gaussian, Inc. and that
 it will not use this program in any manner prohibited above.
 ---------------------------------------------------------------
  

 Cite this work as:
 Gaussian 16, Revision C.01,
 M. J. Frisch, G. W. Trucks, H. B. Schlegel, G. E. Scuseria, 
 M. A. Robb, J. R. Cheeseman, G. Scalmani, V. Barone, 
 G. A. Petersson, H. Nakatsuji, X. Li, M. Caricato, A. V. Marenich, 
 J. Bloino, B. G. Janesko, R. Gomperts, B. Mennucci, H. P. Hratchian, 
 J. V. Ortiz, A. F. Izmaylov, J. L. Sonnenberg, D. Williams-Young, 
 F. Ding, F. Lipparini, F. Egidi, J. Goings, B. Peng, A. Petrone, 
 T. Henderson, D. Ranasinghe, V. G. Zakrzewski, J. Gao, N. Rega, 
 G. Zheng, W. Liang, M. Hada, M. Ehara, K. Toyota, R. Fukuda, 
 J. Hasegawa, M. Ishida, T. Nakajima, Y. Honda, O. Kitao, H. Nakai, 
 T. Vreven, K. Throssell, J. A. Montgomery, Jr., J. E. Peralta, 
 F. Ogliaro, M. J. Bearpark, J. J. Heyd, E. N. Brothers, K. N. Kudin, 
 V. N. Staroverov, T. A. Keith, R. Kobayashi, J. Normand, 
 K. Raghavachari, A. P. Rendell, J. C. Burant, S. S. Iyengar, 
 J. Tomasi, M. Cossi, J. M. Millam, M. Klene, C. Adamo, R. Cammi, 
 J. W. Ochterski, R. L. Martin, K. Morokuma, O. Farkas, 
 J. B. Foresman, and D. J. Fox, Gaussian, Inc., Wallingford CT, 2019.
 
 ******************************************
 Gaussian 16:  ES64L-G16RevC.01  3-Jul-2019
                16-Dec-2024 
 ******************************************
 %chk=4_p1_2.chk
 %lindaworkers=in-cn0088
 %nprocshared=128
 Will use up to  128 processors via shared memory.
 %mem=59800MB
 SetLPE:  input flags=" -workerwait 900 -opt "Tsnet.Node.lindarsharg: ssh " "
 SetLPE:    new flags=" -workerwait 900 -opt "Tsnet.Node.lindarsharg: ssh " -opt 'Tsnet.Node.lindarsharg: ssh'  -nodelist 'in-cn0088' -env GAUSS_MDEF=7838105600 -env GAUSS_EXEDIR="/common/software/install/migrated/gaussian/g16.c01.avx2/g16/bsd:/common/software/install/migrated/gaussian/g16.c01.avx2/g16/local:/common/software/install/migrated/gaussian/g16.c01.avx2/g16/extras:/common/software/install/migrated/gaussian/g16.c01.avx2/g16""
 Will use up to    1 processors via Linda.
 ----------------------------------------------------------------------
 # opt=calcfc # freq # m06l/6-311++g(d,p)/auto # nosymm integral=grid=u
 ltrafine # scf=(tight,intrep,xqc) # SCRF=(SMD,Solvent=n,n-DiMethylForm
 amide)
 ----------------------------------------------------------------------
 1/10=4,18=20,19=15,26=6,38=1/1,3;
 2/9=110,12=2,15=1,17=6,18=5,40=1/2;
 3/5=4,6=6,7=1111,11=2,25=1,30=1,70=32201,71=2,72=148,74=-53,75=-5,82=28,140=1/1,2,3;
 4//1;
 5/5=2,8=3,13=1,17=20,32=2,38=5,53=148/2,8;
 8/6=4,10=90,11=11/1;
 11/6=1,8=1,9=11,15=111,16=1,31=1/1,2,10;
 10/6=1,13=1,31=1/2;
 6/7=2,8=2,9=2,10=2,28=1/1;
 7/10=1,25=1,30=1/1,2,3,16;
 1/10=4,18=20,19=15,26=6/3(2);
 2/9=110,15=1/2;
 99//99;
 2/9=110,15=1/2;
 3/5=4,6=6,7=1111,11=2,25=1,30=1,70=32205,71=1,72=148,74=-53,75=-5,82=28/1,2,3;
 4/5=5,16=3,69=1/1;
 5/5=2,8=3,13=1,17=20,32=2,38=5,53=148/2,8;
 7/30=1/1,2,3,16;
 1/18=20,19=15,26=6/3(-5);
 2/9=110,15=1/2;
 6/7=2,8=2,9=2,10=2,19=2,28=1/1;
 99/9=1/99;
 ----------------
 input: 4cl_2.out
 ----------------
 Symbolic Z-matrix:
 Charge =  1 Multiplicity = 1
 C                     9.93432   24.39343   25.82719 
 C                     8.17295   22.78814   26.68113 
 C                     10.45764   22.68104   27.53551 
 C                     9.97419   21.92155   25.25206 
 C                     9.40209   22.13737   23.87187 
 C                     8.91676   25.08774   24.91884 
 C                     7.60919   23.79615   27.65885 
 C                     11.96096   22.79721   27.38941 
 C                     6.12374   23.52227   27.85276 
 C                     8.85493   26.58577   25.22068 
 C                     9.65691   20.91476   22.99966 
 C                     12.64166   22.50699   28.72492 
 C                     9.01125   21.02028   21.63282 
 C                     10.17502   27.30992   25.01303 
 C                     5.5346    24.28416   29.02311 
 C                     12.35704   21.12269   29.2856 
 H                     9.62906   20.97636   25.67846 
 H                     11.05805   21.89751   25.18521 
 H                     10.06321   24.96513   26.7536 
 H                     10.91334   24.33011   25.34713 
 H                     8.12156   21.78274   27.11113 
 H                     7.58947   22.78056   25.7586 
 H                     10.15874   21.67438   27.83926 
 H                     10.12186   23.38819   28.29822 
 H                     7.75661   24.82684   27.31582 
 H                     8.1139    23.71906   28.62634 
 H                     7.91538   24.66369   25.03815 
 H                     9.17989   24.94424   23.86656 
 H                     9.86539   23.01357   23.40404 
 H                     8.32608   22.32027   23.91739 
 H                     12.30138   22.0944   26.65792 
 H                     9.28421   20.02254   23.51599 
 H                     10.73836   20.76263   22.89966 
 H                     9.4026    21.86874   21.05897 
 H                     7.92728   21.13913   21.72059 
 H                     9.19599   20.1165   21.04924 
 H                     8.08518   27.03603   24.58254 
 H                     8.51504   26.72613   26.25599 
 H                     10.54033   27.17032   23.99161 
 H                     10.9508   26.94989   25.69798 
 H                     10.07226   28.38606   25.18076 
 H                     5.99093   22.4441   28.01194 
 H                     5.58377   23.75815   26.92427 
 H                     4.4541    24.14456   29.0986 
 H                     5.72566   25.35952   28.9377 
 H                     12.34401   23.27178   29.45432 
 H                     13.7188   22.63004   28.58228 
 H                     12.51374   20.34142   28.53081 
 H                     11.32759   21.03152   29.64356 
 H                     13.01035   20.8964   30.13328 
 N                     9.6247    22.97358   26.29086 
 H                     5.96027   23.9364   29.96754 
 H                     12.21075   23.7881   27.07217 
 

 GradGradGradGradGradGradGradGradGradGradGradGradGradGradGradGradGradGrad
 Berny optimization.
 Initialization pass.
                           ----------------------------
                           !    Initial Parameters    !
                           ! (Angstroms and Degrees)  !
 --------------------------                            --------------------------
 ! Name  Definition              Value          Derivative Info.                !
 --------------------------------------------------------------------------------
 ! R1    R(1,6)                  1.5306         calculate D2E/DX2 analytically  !
 ! R2    R(1,19)                 1.0962         calculate D2E/DX2 analytically  !
 ! R3    R(1,20)                 1.0922         calculate D2E/DX2 analytically  !
 ! R4    R(1,51)                 1.5254         calculate D2E/DX2 analytically  !
 ! R5    R(2,7)                  1.5132         calculate D2E/DX2 analytically  !
 ! R6    R(2,21)                 1.0947         calculate D2E/DX2 analytically  !
 ! R7    R(2,22)                 1.0916         calculate D2E/DX2 analytically  !
 ! R8    R(2,51)                 1.5147         calculate D2E/DX2 analytically  !
 ! R9    R(3,8)                  1.5149         calculate D2E/DX2 analytically  !
 ! R10   R(3,23)                 1.0931         calculate D2E/DX2 analytically  !
 ! R11   R(3,24)                 1.0929         calculate D2E/DX2 analytically  !
 ! R12   R(3,51)                 1.526          calculate D2E/DX2 analytically  !
 ! R13   R(4,5)                  1.5096         calculate D2E/DX2 analytically  !
 ! R14   R(4,17)                 1.0928         calculate D2E/DX2 analytically  !
 ! R15   R(4,18)                 1.0862         calculate D2E/DX2 analytically  !
 ! R16   R(4,51)                 1.5192         calculate D2E/DX2 analytically  !
 ! R17   R(5,11)                 1.5233         calculate D2E/DX2 analytically  !
 ! R18   R(5,29)                 1.096          calculate D2E/DX2 analytically  !
 ! R19   R(5,30)                 1.0924         calculate D2E/DX2 analytically  !
 ! R20   R(6,10)                 1.5294         calculate D2E/DX2 analytically  !
 ! R21   R(6,27)                 1.094          calculate D2E/DX2 analytically  !
 ! R22   R(6,28)                 1.0941         calculate D2E/DX2 analytically  !
 ! R23   R(7,9)                  1.5229         calculate D2E/DX2 analytically  !
 ! R24   R(7,25)                 1.0962         calculate D2E/DX2 analytically  !
 ! R25   R(7,26)                 1.0939         calculate D2E/DX2 analytically  !
 ! R26   R(8,12)                 1.5268         calculate D2E/DX2 analytically  !
 ! R27   R(8,31)                 1.07           calculate D2E/DX2 analytically  !
 ! R28   R(8,53)                 1.07           calculate D2E/DX2 analytically  !
 ! R29   R(9,15)                 1.5157         calculate D2E/DX2 analytically  !
 ! R30   R(9,42)                 1.0979         calculate D2E/DX2 analytically  !
 ! R31   R(9,43)                 1.0997         calculate D2E/DX2 analytically  !
 ! R32   R(10,14)                1.5199         calculate D2E/DX2 analytically  !
 ! R33   R(10,37)                1.0966         calculate D2E/DX2 analytically  !
 ! R34   R(10,38)                1.0987         calculate D2E/DX2 analytically  !
 ! R35   R(11,13)                1.5153         calculate D2E/DX2 analytically  !
 ! R36   R(11,32)                1.0962         calculate D2E/DX2 analytically  !
 ! R37   R(11,33)                1.0967         calculate D2E/DX2 analytically  !
 ! R38   R(12,16)                1.5204         calculate D2E/DX2 analytically  !
 ! R39   R(12,46)                1.098          calculate D2E/DX2 analytically  !
 ! R40   R(12,47)                1.0935         calculate D2E/DX2 analytically  !
 ! R41   R(13,34)                1.0965         calculate D2E/DX2 analytically  !
 ! R42   R(13,35)                1.094          calculate D2E/DX2 analytically  !
 ! R43   R(13,36)                1.0916         calculate D2E/DX2 analytically  !
 ! R44   R(14,39)                1.0937         calculate D2E/DX2 analytically  !
 ! R45   R(14,40)                1.0957         calculate D2E/DX2 analytically  !
 ! R46   R(14,41)                1.094          calculate D2E/DX2 analytically  !
 ! R47   R(15,44)                1.0921         calculate D2E/DX2 analytically  !
 ! R48   R(15,45)                1.0955         calculate D2E/DX2 analytically  !
 ! R49   R(15,52)                1.0927         calculate D2E/DX2 analytically  !
 ! R50   R(16,48)                1.0976         calculate D2E/DX2 analytically  !
 ! R51   R(16,49)                1.0937         calculate D2E/DX2 analytically  !
 ! R52   R(16,50)                1.0939         calculate D2E/DX2 analytically  !
 ! A1    A(6,1,19)             110.068          calculate D2E/DX2 analytically  !
 ! A2    A(6,1,20)             111.1842         calculate D2E/DX2 analytically  !
 ! A3    A(6,1,51)             117.8852         calculate D2E/DX2 analytically  !
 ! A4    A(19,1,20)            107.2348         calculate D2E/DX2 analytically  !
 ! A5    A(19,1,51)            104.6209         calculate D2E/DX2 analytically  !
 ! A6    A(20,1,51)            105.164          calculate D2E/DX2 analytically  !
 ! A7    A(7,2,21)             109.9078         calculate D2E/DX2 analytically  !
 ! A8    A(7,2,22)             110.5807         calculate D2E/DX2 analytically  !
 ! A9    A(7,2,51)             116.2317         calculate D2E/DX2 analytically  !
 ! A10   A(21,2,22)            107.4874         calculate D2E/DX2 analytically  !
 ! A11   A(21,2,51)            104.9896         calculate D2E/DX2 analytically  !
 ! A12   A(22,2,51)            107.1826         calculate D2E/DX2 analytically  !
 ! A13   A(8,3,23)             111.6395         calculate D2E/DX2 analytically  !
 ! A14   A(8,3,24)             108.8185         calculate D2E/DX2 analytically  !
 ! A15   A(8,3,51)             116.636          calculate D2E/DX2 analytically  !
 ! A16   A(23,3,24)            108.5371         calculate D2E/DX2 analytically  !
 ! A17   A(23,3,51)            104.7103         calculate D2E/DX2 analytically  !
 ! A18   A(24,3,51)            106.1087         calculate D2E/DX2 analytically  !
 ! A19   A(5,4,17)             111.1433         calculate D2E/DX2 analytically  !
 ! A20   A(5,4,18)             108.9691         calculate D2E/DX2 analytically  !
 ! A21   A(5,4,51)             116.0391         calculate D2E/DX2 analytically  !
 ! A22   A(17,4,18)            108.6633         calculate D2E/DX2 analytically  !
 ! A23   A(17,4,51)            105.0389         calculate D2E/DX2 analytically  !
 ! A24   A(18,4,51)            106.6763         calculate D2E/DX2 analytically  !
 ! A25   A(4,5,11)             110.2042         calculate D2E/DX2 analytically  !
 ! A26   A(4,5,29)             110.1429         calculate D2E/DX2 analytically  !
 ! A27   A(4,5,30)             111.0468         calculate D2E/DX2 analytically  !
 ! A28   A(11,5,29)            109.0577         calculate D2E/DX2 analytically  !
 ! A29   A(11,5,30)            108.8455         calculate D2E/DX2 analytically  !
 ! A30   A(29,5,30)            107.4759         calculate D2E/DX2 analytically  !
 ! A31   A(1,6,10)             110.7373         calculate D2E/DX2 analytically  !
 ! A32   A(1,6,27)             111.5916         calculate D2E/DX2 analytically  !
 ! A33   A(1,6,28)             110.573          calculate D2E/DX2 analytically  !
 ! A34   A(10,6,27)            108.7316         calculate D2E/DX2 analytically  !
 ! A35   A(10,6,28)            109.147          calculate D2E/DX2 analytically  !
 ! A36   A(27,6,28)            105.9137         calculate D2E/DX2 analytically  !
 ! A37   A(2,7,9)              109.0183         calculate D2E/DX2 analytically  !
 ! A38   A(2,7,25)             111.964          calculate D2E/DX2 analytically  !
 ! A39   A(2,7,26)             110.6461         calculate D2E/DX2 analytically  !
 ! A40   A(9,7,25)             109.8836         calculate D2E/DX2 analytically  !
 ! A41   A(9,7,26)             108.9498         calculate D2E/DX2 analytically  !
 ! A42   A(25,7,26)            106.3179         calculate D2E/DX2 analytically  !
 ! A43   A(3,8,12)             110.0899         calculate D2E/DX2 analytically  !
 ! A44   A(3,8,31)             109.3469         calculate D2E/DX2 analytically  !
 ! A45   A(3,8,53)             109.3469         calculate D2E/DX2 analytically  !
 ! A46   A(12,8,31)            109.3469         calculate D2E/DX2 analytically  !
 ! A47   A(12,8,53)            109.3469         calculate D2E/DX2 analytically  !
 ! A48   A(31,8,53)            109.348          calculate D2E/DX2 analytically  !
 ! A49   A(7,9,15)             112.7715         calculate D2E/DX2 analytically  !
 ! A50   A(7,9,42)             108.2441         calculate D2E/DX2 analytically  !
 ! A51   A(7,9,43)             109.4428         calculate D2E/DX2 analytically  !
 ! A52   A(15,9,42)            109.5522         calculate D2E/DX2 analytically  !
 ! A53   A(15,9,43)            110.6875         calculate D2E/DX2 analytically  !
 ! A54   A(42,9,43)            105.8821         calculate D2E/DX2 analytically  !
 ! A55   A(6,10,14)            113.8657         calculate D2E/DX2 analytically  !
 ! A56   A(6,10,37)            108.404          calculate D2E/DX2 analytically  !
 ! A57   A(6,10,38)            108.8817         calculate D2E/DX2 analytically  !
 ! A58   A(14,10,37)           109.5448         calculate D2E/DX2 analytically  !
 ! A59   A(14,10,38)           109.6677         calculate D2E/DX2 analytically  !
 ! A60   A(37,10,38)           106.1859         calculate D2E/DX2 analytically  !
 ! A61   A(5,11,13)            112.9116         calculate D2E/DX2 analytically  !
 ! A62   A(5,11,32)            109.0686         calculate D2E/DX2 analytically  !
 ! A63   A(5,11,33)            109.1785         calculate D2E/DX2 analytically  !
 ! A64   A(13,11,32)           109.6746         calculate D2E/DX2 analytically  !
 ! A65   A(13,11,33)           110.3395         calculate D2E/DX2 analytically  !
 ! A66   A(32,11,33)           105.3858         calculate D2E/DX2 analytically  !
 ! A67   A(8,12,16)            114.3409         calculate D2E/DX2 analytically  !
 ! A68   A(8,12,46)            109.1361         calculate D2E/DX2 analytically  !
 ! A69   A(8,12,47)            107.6783         calculate D2E/DX2 analytically  !
 ! A70   A(16,12,46)           109.784          calculate D2E/DX2 analytically  !
 ! A71   A(16,12,47)           109.5702         calculate D2E/DX2 analytically  !
 ! A72   A(46,12,47)           105.9808         calculate D2E/DX2 analytically  !
 ! A73   A(11,13,34)           111.9541         calculate D2E/DX2 analytically  !
 ! A74   A(11,13,35)           110.9393         calculate D2E/DX2 analytically  !
 ! A75   A(11,13,36)           110.6387         calculate D2E/DX2 analytically  !
 ! A76   A(34,13,35)           108.1527         calculate D2E/DX2 analytically  !
 ! A77   A(34,13,36)           107.4855         calculate D2E/DX2 analytically  !
 ! A78   A(35,13,36)           107.4899         calculate D2E/DX2 analytically  !
 ! A79   A(10,14,39)           110.9079         calculate D2E/DX2 analytically  !
 ! A80   A(10,14,40)           111.8988         calculate D2E/DX2 analytically  !
 ! A81   A(10,14,41)           111.478          calculate D2E/DX2 analytically  !
 ! A82   A(39,14,40)           107.7807         calculate D2E/DX2 analytically  !
 ! A83   A(39,14,41)           107.4647         calculate D2E/DX2 analytically  !
 ! A84   A(40,14,41)           107.0906         calculate D2E/DX2 analytically  !
 ! A85   A(9,15,44)            111.9435         calculate D2E/DX2 analytically  !
 ! A86   A(9,15,45)            111.4341         calculate D2E/DX2 analytically  !
 ! A87   A(9,15,52)            110.8531         calculate D2E/DX2 analytically  !
 ! A88   A(44,15,45)           107.6625         calculate D2E/DX2 analytically  !
 ! A89   A(44,15,52)           106.5578         calculate D2E/DX2 analytically  !
 ! A90   A(45,15,52)           108.1695         calculate D2E/DX2 analytically  !
 ! A91   A(12,16,48)           111.5786         calculate D2E/DX2 analytically  !
 ! A92   A(12,16,49)           111.8876         calculate D2E/DX2 analytically  !
 ! A93   A(12,16,50)           111.2419         calculate D2E/DX2 analytically  !
 ! A94   A(48,16,49)           107.4649         calculate D2E/DX2 analytically  !
 ! A95   A(48,16,50)           107.4816         calculate D2E/DX2 analytically  !
 ! A96   A(49,16,50)           106.9341         calculate D2E/DX2 analytically  !
 ! A97   A(1,51,2)             112.7566         calculate D2E/DX2 analytically  !
 ! A98   A(1,51,3)             108.396          calculate D2E/DX2 analytically  !
 ! A99   A(1,51,4)             112.9563         calculate D2E/DX2 analytically  !
 ! A100  A(2,51,3)             106.8304         calculate D2E/DX2 analytically  !
 ! A101  A(2,51,4)             108.1731         calculate D2E/DX2 analytically  !
 ! A102  A(3,51,4)             107.4215         calculate D2E/DX2 analytically  !
 ! D1    D(19,1,6,10)           25.2714         calculate D2E/DX2 analytically  !
 ! D2    D(19,1,6,27)          -96.0029         calculate D2E/DX2 analytically  !
 ! D3    D(19,1,6,28)          146.3833         calculate D2E/DX2 analytically  !
 ! D4    D(20,1,6,10)          -93.4062         calculate D2E/DX2 analytically  !
 ! D5    D(20,1,6,27)          145.3196         calculate D2E/DX2 analytically  !
 ! D6    D(20,1,6,28)           27.7057         calculate D2E/DX2 analytically  !
 ! D7    D(51,1,6,10)          145.0959         calculate D2E/DX2 analytically  !
 ! D8    D(51,1,6,27)           23.8217         calculate D2E/DX2 analytically  !
 ! D9    D(51,1,6,28)          -93.7921         calculate D2E/DX2 analytically  !
 ! D10   D(6,1,51,2)           -41.5839         calculate D2E/DX2 analytically  !
 ! D11   D(6,1,51,3)          -159.6439         calculate D2E/DX2 analytically  !
 ! D12   D(6,1,51,4)            81.4397         calculate D2E/DX2 analytically  !
 ! D13   D(19,1,51,2)           81.0481         calculate D2E/DX2 analytically  !
 ! D14   D(19,1,51,3)          -37.0119         calculate D2E/DX2 analytically  !
 ! D15   D(19,1,51,4)         -155.9283         calculate D2E/DX2 analytically  !
 ! D16   D(20,1,51,2)         -166.1249         calculate D2E/DX2 analytically  !
 ! D17   D(20,1,51,3)           75.8151         calculate D2E/DX2 analytically  !
 ! D18   D(20,1,51,4)          -43.1013         calculate D2E/DX2 analytically  !
 ! D19   D(21,2,7,9)           -65.2648         calculate D2E/DX2 analytically  !
 ! D20   D(21,2,7,25)          172.9382         calculate D2E/DX2 analytically  !
 ! D21   D(21,2,7,26)           54.5328         calculate D2E/DX2 analytically  !
 ! D22   D(22,2,7,9)            53.2487         calculate D2E/DX2 analytically  !
 ! D23   D(22,2,7,25)          -68.5483         calculate D2E/DX2 analytically  !
 ! D24   D(22,2,7,26)          173.0463         calculate D2E/DX2 analytically  !
 ! D25   D(51,2,7,9)           175.7153         calculate D2E/DX2 analytically  !
 ! D26   D(51,2,7,25)           53.9183         calculate D2E/DX2 analytically  !
 ! D27   D(51,2,7,26)          -64.487          calculate D2E/DX2 analytically  !
 ! D28   D(7,2,51,1)           -51.1395         calculate D2E/DX2 analytically  !
 ! D29   D(7,2,51,3)            67.8353         calculate D2E/DX2 analytically  !
 ! D30   D(7,2,51,4)          -176.7912         calculate D2E/DX2 analytically  !
 ! D31   D(21,2,51,1)         -172.8017         calculate D2E/DX2 analytically  !
 ! D32   D(21,2,51,3)          -53.8268         calculate D2E/DX2 analytically  !
 ! D33   D(21,2,51,4)           61.5467         calculate D2E/DX2 analytically  !
 ! D34   D(22,2,51,1)           73.0934         calculate D2E/DX2 analytically  !
 ! D35   D(22,2,51,3)         -167.9317         calculate D2E/DX2 analytically  !
 ! D36   D(22,2,51,4)          -52.5582         calculate D2E/DX2 analytically  !
 ! D37   D(23,3,8,12)          -61.0274         calculate D2E/DX2 analytically  !
 ! D38   D(23,3,8,31)           59.1236         calculate D2E/DX2 analytically  !
 ! D39   D(23,3,8,53)          178.8217         calculate D2E/DX2 analytically  !
 ! D40   D(24,3,8,12)           58.7438         calculate D2E/DX2 analytically  !
 ! D41   D(24,3,8,31)          178.8948         calculate D2E/DX2 analytically  !
 ! D42   D(24,3,8,53)          -61.4071         calculate D2E/DX2 analytically  !
 ! D43   D(51,3,8,12)          178.668          calculate D2E/DX2 analytically  !
 ! D44   D(51,3,8,31)          -61.181          calculate D2E/DX2 analytically  !
 ! D45   D(51,3,8,53)           58.517          calculate D2E/DX2 analytically  !
 ! D46   D(8,3,51,1)           -58.4659         calculate D2E/DX2 analytically  !
 ! D47   D(8,3,51,2)           179.7651         calculate D2E/DX2 analytically  !
 ! D48   D(8,3,51,4)            63.8887         calculate D2E/DX2 analytically  !
 ! D49   D(23,3,51,1)          177.6024         calculate D2E/DX2 analytically  !
 ! D50   D(23,3,51,2)           55.8334         calculate D2E/DX2 analytically  !
 ! D51   D(23,3,51,4)          -60.043          calculate D2E/DX2 analytically  !
 ! D52   D(24,3,51,1)           62.8975         calculate D2E/DX2 analytically  !
 ! D53   D(24,3,51,2)          -58.8715         calculate D2E/DX2 analytically  !
 ! D54   D(24,3,51,4)         -174.748          calculate D2E/DX2 analytically  !
 ! D55   D(17,4,5,11)          -51.6992         calculate D2E/DX2 analytically  !
 ! D56   D(17,4,5,29)         -172.0691         calculate D2E/DX2 analytically  !
 ! D57   D(17,4,5,30)           68.992          calculate D2E/DX2 analytically  !
 ! D58   D(18,4,5,11)           68.0193         calculate D2E/DX2 analytically  !
 ! D59   D(18,4,5,29)          -52.3506         calculate D2E/DX2 analytically  !
 ! D60   D(18,4,5,30)         -171.2896         calculate D2E/DX2 analytically  !
 ! D61   D(51,4,5,11)         -171.6055         calculate D2E/DX2 analytically  !
 ! D62   D(51,4,5,29)           68.0246         calculate D2E/DX2 analytically  !
 ! D63   D(51,4,5,30)          -50.9144         calculate D2E/DX2 analytically  !
 ! D64   D(5,4,51,1)           -52.3572         calculate D2E/DX2 analytically  !
 ! D65   D(5,4,51,2)            73.1768         calculate D2E/DX2 analytically  !
 ! D66   D(5,4,51,3)          -171.8372         calculate D2E/DX2 analytically  !
 ! D67   D(17,4,51,1)         -175.5158         calculate D2E/DX2 analytically  !
 ! D68   D(17,4,51,2)          -49.9818         calculate D2E/DX2 analytically  !
 ! D69   D(17,4,51,3)           65.0042         calculate D2E/DX2 analytically  !
 ! D70   D(18,4,51,1)           69.2455         calculate D2E/DX2 analytically  !
 ! D71   D(18,4,51,2)         -165.2205         calculate D2E/DX2 analytically  !
 ! D72   D(18,4,51,3)          -50.2345         calculate D2E/DX2 analytically  !
 ! D73   D(4,5,11,13)          175.4219         calculate D2E/DX2 analytically  !
 ! D74   D(4,5,11,32)           53.2248         calculate D2E/DX2 analytically  !
 ! D75   D(4,5,11,33)          -61.4486         calculate D2E/DX2 analytically  !
 ! D76   D(29,5,11,13)         -63.5572         calculate D2E/DX2 analytically  !
 ! D77   D(29,5,11,32)         174.2456         calculate D2E/DX2 analytically  !
 ! D78   D(29,5,11,33)          59.5722         calculate D2E/DX2 analytically  !
 ! D79   D(30,5,11,13)          53.4192         calculate D2E/DX2 analytically  !
 ! D80   D(30,5,11,32)         -68.778          calculate D2E/DX2 analytically  !
 ! D81   D(30,5,11,33)         176.5486         calculate D2E/DX2 analytically  !
 ! D82   D(1,6,10,14)           60.3207         calculate D2E/DX2 analytically  !
 ! D83   D(1,6,10,37)         -177.4878         calculate D2E/DX2 analytically  !
 ! D84   D(1,6,10,38)          -62.3821         calculate D2E/DX2 analytically  !
 ! D85   D(27,6,10,14)        -176.7316         calculate D2E/DX2 analytically  !
 ! D86   D(27,6,10,37)         -54.5401         calculate D2E/DX2 analytically  !
 ! D87   D(27,6,10,38)          60.5656         calculate D2E/DX2 analytically  !
 ! D88   D(28,6,10,14)         -61.6308         calculate D2E/DX2 analytically  !
 ! D89   D(28,6,10,37)          60.5607         calculate D2E/DX2 analytically  !
 ! D90   D(28,6,10,38)         175.6665         calculate D2E/DX2 analytically  !
 ! D91   D(2,7,9,15)           167.9246         calculate D2E/DX2 analytically  !
 ! D92   D(2,7,9,42)            46.5561         calculate D2E/DX2 analytically  !
 ! D93   D(2,7,9,43)           -68.4003         calculate D2E/DX2 analytically  !
 ! D94   D(25,7,9,15)          -69.026          calculate D2E/DX2 analytically  !
 ! D95   D(25,7,9,42)          169.6055         calculate D2E/DX2 analytically  !
 ! D96   D(25,7,9,43)           54.6491         calculate D2E/DX2 analytically  !
 ! D97   D(26,7,9,15)           47.0828         calculate D2E/DX2 analytically  !
 ! D98   D(26,7,9,42)          -74.2857         calculate D2E/DX2 analytically  !
 ! D99   D(26,7,9,43)          170.7579         calculate D2E/DX2 analytically  !
 ! D100  D(3,8,12,16)           59.6204         calculate D2E/DX2 analytically  !
 ! D101  D(3,8,12,46)          -63.7601         calculate D2E/DX2 analytically  !
 ! D102  D(3,8,12,47)         -178.3711         calculate D2E/DX2 analytically  !
 ! D103  D(31,8,12,16)         -60.5306         calculate D2E/DX2 analytically  !
 ! D104  D(31,8,12,46)         176.0889         calculate D2E/DX2 analytically  !
 ! D105  D(31,8,12,47)          61.478          calculate D2E/DX2 analytically  !
 ! D106  D(53,8,12,16)         179.7713         calculate D2E/DX2 analytically  !
 ! D107  D(53,8,12,46)          56.3909         calculate D2E/DX2 analytically  !
 ! D108  D(53,8,12,47)         -58.2201         calculate D2E/DX2 analytically  !
 ! D109  D(7,9,15,44)          175.1679         calculate D2E/DX2 analytically  !
 ! D110  D(7,9,15,45)           54.5323         calculate D2E/DX2 analytically  !
 ! D111  D(7,9,15,52)          -66.0001         calculate D2E/DX2 analytically  !
 ! D112  D(42,9,15,44)         -64.2091         calculate D2E/DX2 analytically  !
 ! D113  D(42,9,15,45)         175.1554         calculate D2E/DX2 analytically  !
 ! D114  D(42,9,15,52)          54.623          calculate D2E/DX2 analytically  !
 ! D115  D(43,9,15,44)          52.1841         calculate D2E/DX2 analytically  !
 ! D116  D(43,9,15,45)         -68.4514         calculate D2E/DX2 analytically  !
 ! D117  D(43,9,15,52)         171.0162         calculate D2E/DX2 analytically  !
 ! D118  D(6,10,14,39)          56.8442         calculate D2E/DX2 analytically  !
 ! D119  D(6,10,14,40)         -63.5459         calculate D2E/DX2 analytically  !
 ! D120  D(6,10,14,41)         176.5508         calculate D2E/DX2 analytically  !
 ! D121  D(37,10,14,39)        -64.7166         calculate D2E/DX2 analytically  !
 ! D122  D(37,10,14,40)        174.8933         calculate D2E/DX2 analytically  !
 ! D123  D(37,10,14,41)         54.99           calculate D2E/DX2 analytically  !
 ! D124  D(38,10,14,39)        179.1153         calculate D2E/DX2 analytically  !
 ! D125  D(38,10,14,40)         58.7252         calculate D2E/DX2 analytically  !
 ! D126  D(38,10,14,41)        -61.1781         calculate D2E/DX2 analytically  !
 ! D127  D(5,11,13,34)          61.5317         calculate D2E/DX2 analytically  !
 ! D128  D(5,11,13,35)         -59.3927         calculate D2E/DX2 analytically  !
 ! D129  D(5,11,13,36)        -178.6006         calculate D2E/DX2 analytically  !
 ! D130  D(32,11,13,34)       -176.6118         calculate D2E/DX2 analytically  !
 ! D131  D(32,11,13,35)         62.4639         calculate D2E/DX2 analytically  !
 ! D132  D(32,11,13,36)        -56.7441         calculate D2E/DX2 analytically  !
 ! D133  D(33,11,13,34)        -60.9507         calculate D2E/DX2 analytically  !
 ! D134  D(33,11,13,35)        178.1249         calculate D2E/DX2 analytically  !
 ! D135  D(33,11,13,36)         58.9169         calculate D2E/DX2 analytically  !
 ! D136  D(8,12,16,48)          49.1514         calculate D2E/DX2 analytically  !
 ! D137  D(8,12,16,49)         -71.2929         calculate D2E/DX2 analytically  !
 ! D138  D(8,12,16,50)         169.1727         calculate D2E/DX2 analytically  !
 ! D139  D(46,12,16,48)        172.1821         calculate D2E/DX2 analytically  !
 ! D140  D(46,12,16,49)         51.7378         calculate D2E/DX2 analytically  !
 ! D141  D(46,12,16,50)        -67.7965         calculate D2E/DX2 analytically  !
 ! D142  D(47,12,16,48)        -71.8162         calculate D2E/DX2 analytically  !
 ! D143  D(47,12,16,49)        167.7395         calculate D2E/DX2 analytically  !
 ! D144  D(47,12,16,50)         48.2051         calculate D2E/DX2 analytically  !
 --------------------------------------------------------------------------------
 Trust Radius=3.00D-01 FncErr=5.00D-06 GrdErr=5.00D-06 EigMax=2.50D+02 EigMin=1.00D-04
 Number of steps in this run=    308 maximum allowed number of steps=    318.
 GradGradGradGradGradGradGradGradGradGradGradGradGradGradGradGradGradGrad

 Symmetry turned off by external request.
 Stoichiometry    C16H36N(1+)
 Framework group  C1[X(C16H36N)]
 Deg. of freedom   153
 Full point group                 C1      NOp   1
                          Input orientation:                          
 ---------------------------------------------------------------------
 Center     Atomic      Atomic             Coordinates (Angstroms)
 Number     Number       Type             X           Y           Z
 ---------------------------------------------------------------------
      1          6           0        9.934318   24.393425   25.827192
      2          6           0        8.172955   22.788139   26.681128
      3          6           0       10.457639   22.681038   27.535514
      4          6           0        9.974191   21.921547   25.252061
      5          6           0        9.402094   22.137367   23.871869
      6          6           0        8.916764   25.087737   24.918841
      7          6           0        7.609187   23.796153   27.658850
      8          6           0       11.960958   22.797211   27.389411
      9          6           0        6.123739   23.522267   27.852760
     10          6           0        8.854933   26.585774   25.220680
     11          6           0        9.656910   20.914765   22.999656
     12          6           0       12.641661   22.506989   28.724925
     13          6           0        9.011253   21.020275   21.632822
     14          6           0       10.175023   27.309922   25.013030
     15          6           0        5.534600   24.284160   29.023107
     16          6           0       12.357042   21.122686   29.285595
     17          1           0        9.629062   20.976361   25.678463
     18          1           0       11.058050   21.897510   25.185208
     19          1           0       10.063208   24.965128   26.753600
     20          1           0       10.913339   24.330109   25.347126
     21          1           0        8.121562   21.782741   27.111127
     22          1           0        7.589468   22.780563   25.758600
     23          1           0       10.158743   21.674383   27.839257
     24          1           0       10.121855   23.388194   28.298219
     25          1           0        7.756605   24.826840   27.315820
     26          1           0        8.113899   23.719055   28.626342
     27          1           0        7.915377   24.663689   25.038155
     28          1           0        9.179893   24.944243   23.866559
     29          1           0        9.865392   23.013573   23.404035
     30          1           0        8.326084   22.320273   23.917395
     31          1           0       12.301376   22.094404   26.657921
     32          1           0        9.284210   20.022538   23.515986
     33          1           0       10.738355   20.762626   22.899659
     34          1           0        9.402602   21.868740   21.058965
     35          1           0        7.927281   21.139130   21.720589
     36          1           0        9.195994   20.116498   21.049241
     37          1           0        8.085179   27.036032   24.582545
     38          1           0        8.515042   26.726132   26.255991
     39          1           0       10.540331   27.170321   23.991609
     40          1           0       10.950799   26.949890   25.697985
     41          1           0       10.072264   28.386056   25.180759
     42          1           0        5.990928   22.444100   28.011936
     43          1           0        5.583772   23.758152   26.924273
     44          1           0        4.454103   24.144559   29.098602
     45          1           0        5.725656   25.359517   28.937697
     46          1           0       12.344008   23.271782   29.454321
     47          1           0       13.718795   22.630041   28.582285
     48          1           0       12.513741   20.341419   28.530809
     49          1           0       11.327589   21.031516   29.643559
     50          1           0       13.010347   20.896403   30.133276
     51          7           0        9.624700   22.973577   26.290861
     52          1           0        5.960271   23.936402   29.967537
     53          1           0       12.210751   23.788100   27.072171
 ---------------------------------------------------------------------
 Rotational constants (GHZ):           0.3012848           0.2913891           0.2305916
 Standard basis: 6-311++G(d,p) (5D, 7F)
   626 basis functions,   936 primitive gaussians,   643 cartesian basis functions
    69 alpha electrons       69 beta electrons
       nuclear repulsion energy      1377.6815986093 Hartrees.
 NAtoms=   53 NActive=   53 NUniq=   53 SFac= 1.00D+00 NAtFMM=   60 NAOKFM=F Big=F
 Integral buffers will be    131072 words long.
 Raffenetti 2 integral format.
 Two-electron integral symmetry is turned off.
 Standard density basis: Auto (5D, 7F)
  2900 Density fitting functions
 Force inversion solution in PCM.
 ------------------------------------------------------------------------------
 Polarizable Continuum Model (PCM)
 =================================
 Model                : PCM.
 Atomic radii         : SMD-Coulomb.
 Polarization charges : Total charges.
 Charge compensation  : None.
 Solution method      : Matrix inversion.
 Cavity type          : VdW (van der Waals Surface) (Alpha=1.000).
 Cavity algorithm     : GePol (No added spheres)
                        Default sphere list used, NSphG=   53.
                        Lebedev-Laikov grids with approx.  5.0 points / Ang**2.
                        Smoothing algorithm: York/Karplus (Gamma=1.0000).
                        Polarization charges: spherical gaussians, with
                                              point-specific exponents (IZeta= 3).
                        Self-potential: point-specific (ISelfS= 7).
                        Self-field    : sphere-specific E.n sum rule (ISelfD= 2).
 1st derivatives      : Analytical E(r).r(x)/FMM algorithm (CHGder, D1EAlg=3).
                        Cavity 1st derivative terms included.
 2nd derivatives      : Analytical E(r).r(xy)/FMM algorithm (CHGder, D2EAlg=3).
                        Cavity 2nd derivative terms included.
 Solvent              : n,n-DiMethylFormamide, Eps=  37.219000 Eps(inf)=   2.046330
 ------------------------------------------------------------------------------
 ------------------------------------------------------------------------------
 Atomic radii for non-electrostatic terms: SMD-CDS.
 ------------------------------------------------------------------------------
 Nuclear repulsion after PCM non-electrostatic terms =     1377.6768960867 Hartrees.
 One-electron integrals computed using PRISM.
 NBasis=   626 RedAO= T EigKep=  1.67D-06  NBF=   626
 NBsUse=   626 1.00D-06 EigRej= -1.00D+00 NBFU=   626
 NBasis=      626 NBas6D=      643 NTT=      196251   NTT6D=   207046
 NDBShl=      490 NDBF=       2900 NDBF6D=     3316  NNucDB=        0
 IDenFi=        2 ISolve=        0 FullAP=F BlkAPC=T NucTyp=        0
 TolInv= 1.00D-06 TolIt=  1.00D-10 IR12=0.
 FoFCou: FMM=F IPFlag=           0 FMFlag=           0 FMFlg1=           0
         NFxFlg=           0 DoJE=F BraDBF=T KetDBF=T FulRan=T
         wScrn=  0.000000 ICntrl=       600 IOpCl=  3 I1Cent=           6 NGrid=           0
         NMat0=    1 NMatS0=   3316 NMatT0=    0 NMatD0=    1 NMtDS0=    0 NMtDT0=    0
 Symmetry not used in FoFCou.
 DBF EigKep=  1.02D-06 EigRej=  9.72D-07
 NDBF=   2900  NBFD=  2900
 NRank=  2697 NBFDU=  2697
 S*AI*S=  16.1121316108    
 ExpMin= 3.60D-02 ExpMax= 6.29D+03 ExpMxC= 9.49D+02 IAcc=3 IRadAn=         5 AccDes= 0.00D+00
 Harris functional with IExCor= 1009 and IRadAn=       5 diagonalized for initial guess.
 HarFok:  IExCor= 1009 AccDes= 0.00D+00 IRadAn=         5 IDoV= 1 UseB2=F ITyADJ=14
 ICtDFT=  3500011 ScaDFX=  1.000000  1.000000  1.000000  1.000000
 FoFCou: FMM=F IPFlag=           0 FMFlag=      100000 FMFlg1=           0
         NFxFlg=           0 DoJE=T BraDBF=F KetDBF=T FulRan=T
         wScrn=  0.000000 ICntrl=       500 IOpCl=  0 I1Cent=   200000004 NGrid=           0
         NMat0=    1 NMatS0=      1 NMatT0=    0 NMatD0=    1 NMtDS0=    0 NMtDT0=    0
 Symmetry not used in FoFCou.
 Requested convergence on RMS density matrix=1.00D-08 within  32 cycles.
 Requested convergence on MAX density matrix=1.00D-06.
 Requested convergence on             energy=1.00D-06.
 No special actions if energy rises.
 FoFCou: FMM=F IPFlag=           0 FMFlag=      100000 FMFlg1=           0
         NFxFlg=           0 DoJE=T BraDBF=T KetDBF=F FulRan=T
         wScrn=  0.000000 ICntrl=       500 IOpCl=  0 I1Cent=           5 NGrid=           0
         NMat0=    1 NMatS0=      1 NMatT0=    0 NMatD0=    1 NMtDS0=    0 NMtDT0=    0
 Symmetry not used in FoFCou.
 Inv3:  Mode=1 IEnd=    31824147.
 Iteration    1 A*A^-1 deviation from unit magnitude is 3.89D-15 for   2905.
 Iteration    1 A*A^-1 deviation from orthogonality  is 2.66D-15 for   1916    637.
 Iteration    1 A^-1*A deviation from unit magnitude is 3.33D-15 for   2903.
 Iteration    1 A^-1*A deviation from orthogonality  is 2.19D-09 for   1705   1652.
 Iteration    2 A*A^-1 deviation from unit magnitude is 2.89D-15 for   2954.
 Iteration    2 A*A^-1 deviation from orthogonality  is 4.00D-15 for   2899    390.
 Iteration    2 A^-1*A deviation from unit magnitude is 2.22D-15 for   2911.
 Iteration    2 A^-1*A deviation from orthogonality  is 9.99D-16 for    991    728.
 Error on total polarization charges =  0.06772
 SCF Done:  E(RM06L) =  -686.086121722     A.U. after   14 cycles
            NFock= 14  Conv=0.60D-08     -V/T= 2.0049
 SMD-CDS (non-electrostatic) energy       (kcal/mol) =      -2.95
 (included in total energy above)
 QCSCF skips out because SCF is already converged.
 DoSCS=F DFT=T ScalE2(SS,OS)=  1.000000  1.000000
 Range of M.O.s used for correlation:     1   626
 NBasis=   626 NAE=    69 NBE=    69 NFC=     0 NFV=     0
 NROrb=    626 NOA=    69 NOB=    69 NVA=   557 NVB=   557

 **** Warning!!: The largest alpha MO coefficient is  0.14998848D+03

 Symmetrizing basis deriv contribution to polar:
 IMax=3 JMax=2 DiffMx= 0.00D+00
 G2DrvN: will do    54 centers at a time, making    1 passes.
 Calling FoFCou, ICntrl=  3507 FMM=F I1Cent=   4 AccDes= 0.00D+00.
 NEqPCM:  Using equilibrium solvation (IEInf=0, Eps=  37.2190, EpsInf=   2.0463)
 G2PCM: DoFxE=T DoFxN=T DoGrad=T DoDP/DQ/DG/TGxP=FFFF NFrqRd=   0 IEInf=0 SqF1=F DoCFld=F IF1Alg=4.
 G2DrvN: will do    54 centers at a time, making    1 passes.
 Calling FoFCou, ICntrl=  3507 FMM=F I1Cent=1004 AccDes= 0.00D+00.
 End of G2Drv F.D. properties file   721 does not exist.
 End of G2Drv F.D. properties file   722 does not exist.
 End of G2Drv F.D. properties file   788 does not exist.
          IDoAtm=11111111111111111111111111111111111111111111111111
          IDoAtm=111
 NEqPCM:  Using equilibrium solvation (IEInf=0, Eps=  37.2190, EpsInf=   2.0463)
          Differentiating once with respect to nuclear coordinates.
 FoFCou: FMM=F IPFlag=           0 FMFlag=      100000 FMFlg1=           0
         NFxFlg=           0 DoJE=F BraDBF=T KetDBF=F FulRan=T
         wScrn=  0.000000 ICntrl=       500 IOpCl=  0 I1Cent=           5 NGrid=           0
         NMat0=  128 NMatS0=    128 NMatT0=    0 NMatD0=  128 NMtDS0=    0 NMtDT0=    0
 Symmetry not used in FoFCou.
          There are   162 degrees of freedom in the 1st order CPHF.  IDoFFX=6 NUNeed=     0.
    156 vectors produced by pass  0 Test12= 3.84D-14 1.00D-09 XBig12= 1.64D-01 6.01D-02.
 AX will form   128 AO Fock derivatives at one time.
    156 vectors produced by pass  1 Test12= 3.84D-14 1.00D-09 XBig12= 1.19D-02 9.18D-03.
    156 vectors produced by pass  2 Test12= 3.84D-14 1.00D-09 XBig12= 1.22D-04 7.24D-04.
    156 vectors produced by pass  3 Test12= 3.84D-14 1.00D-09 XBig12= 1.62D-06 6.26D-05.
    156 vectors produced by pass  4 Test12= 3.84D-14 1.00D-09 XBig12= 5.21D-09 3.30D-06.
    128 vectors produced by pass  5 Test12= 3.84D-14 1.00D-09 XBig12= 7.64D-12 1.07D-07.
     27 vectors produced by pass  6 Test12= 3.84D-14 1.00D-09 XBig12= 9.10D-15 3.45D-09.
 InvSVY:  IOpt=1 It=  1 EMax= 4.16D-16
 Solved reduced A of dimension   935 with   162 vectors.
 End of Minotr F.D. properties file   721 does not exist.
 End of Minotr F.D. properties file   722 does not exist.
 End of Minotr F.D. properties file   788 does not exist.

 **********************************************************************

            Population analysis using the SCF Density.

 **********************************************************************

 Alpha  occ. eigenvalues --  -14.29531 -10.10276 -10.09937 -10.09858 -10.09858
 Alpha  occ. eigenvalues --  -10.05639 -10.05525 -10.05407 -10.05056 -10.04880
 Alpha  occ. eigenvalues --  -10.04875 -10.04851 -10.04776 -10.03649 -10.03619
 Alpha  occ. eigenvalues --  -10.03570 -10.03561  -0.97252  -0.78079  -0.77948
 Alpha  occ. eigenvalues --   -0.77444  -0.76198  -0.70904  -0.70792  -0.70329
 Alpha  occ. eigenvalues --   -0.67183  -0.63182  -0.62329  -0.61588  -0.57205
 Alpha  occ. eigenvalues --   -0.55462  -0.55162  -0.54626  -0.53374  -0.48492
 Alpha  occ. eigenvalues --   -0.47778  -0.47121  -0.44743  -0.44543  -0.42993
 Alpha  occ. eigenvalues --   -0.42162  -0.40478  -0.40150  -0.39655  -0.38976
 Alpha  occ. eigenvalues --   -0.38652  -0.38477  -0.37825  -0.37219  -0.36861
 Alpha  occ. eigenvalues --   -0.36408  -0.35748  -0.34951  -0.34138  -0.33818
 Alpha  occ. eigenvalues --   -0.33168  -0.32548  -0.31734  -0.31457  -0.31355
 Alpha  occ. eigenvalues --   -0.30897  -0.30668  -0.30612  -0.30090  -0.29869
 Alpha  occ. eigenvalues --   -0.29662  -0.29342  -0.29167  -0.29027
 Alpha virt. eigenvalues --   -0.00999  -0.00276  -0.00209  -0.00060   0.01140
 Alpha virt. eigenvalues --    0.01262   0.01293   0.01444   0.01649   0.02591
 Alpha virt. eigenvalues --    0.03206   0.03568   0.03648   0.03731   0.03947
 Alpha virt. eigenvalues --    0.04266   0.04691   0.04898   0.05337   0.05389
 Alpha virt. eigenvalues --    0.06096   0.06416   0.06473   0.06641   0.06712
 Alpha virt. eigenvalues --    0.07270   0.07337   0.07725   0.08008   0.08160
 Alpha virt. eigenvalues --    0.08460   0.08752   0.08956   0.09323   0.09468
 Alpha virt. eigenvalues --    0.09684   0.09905   0.10061   0.10242   0.10852
 Alpha virt. eigenvalues --    0.11279   0.11714   0.12022   0.12336   0.12433
 Alpha virt. eigenvalues --    0.12668   0.12989   0.13108   0.13339   0.13455
 Alpha virt. eigenvalues --    0.13492   0.13925   0.13995   0.14120   0.14388
 Alpha virt. eigenvalues --    0.14581   0.14739   0.14884   0.15032   0.15250
 Alpha virt. eigenvalues --    0.15522   0.15643   0.15687   0.15850   0.15990
 Alpha virt. eigenvalues --    0.16131   0.16306   0.16407   0.16593   0.16622
 Alpha virt. eigenvalues --    0.16791   0.17101   0.17120   0.17449   0.17659
 Alpha virt. eigenvalues --    0.17806   0.18086   0.18208   0.18292   0.18663
 Alpha virt. eigenvalues --    0.18789   0.19174   0.19479   0.19497   0.19741
 Alpha virt. eigenvalues --    0.19829   0.19916   0.20112   0.20279   0.20644
 Alpha virt. eigenvalues --    0.20807   0.21302   0.21373   0.21450   0.21865
 Alpha virt. eigenvalues --    0.22176   0.22338   0.22540   0.22653   0.22999
 Alpha virt. eigenvalues --    0.23249   0.23663   0.23918   0.24075   0.24393
 Alpha virt. eigenvalues --    0.24440   0.24814   0.25167   0.25339   0.25664
 Alpha virt. eigenvalues --    0.25844   0.26024   0.26223   0.26711   0.27120
 Alpha virt. eigenvalues --    0.27238   0.27446   0.28075   0.28248   0.28590
 Alpha virt. eigenvalues --    0.29137   0.29291   0.29623   0.29751   0.30145
 Alpha virt. eigenvalues --    0.30582   0.30802   0.30921   0.31199   0.31494
 Alpha virt. eigenvalues --    0.31729   0.32288   0.32660   0.33149   0.33188
 Alpha virt. eigenvalues --    0.33700   0.33998   0.34389   0.34535   0.34788
 Alpha virt. eigenvalues --    0.34995   0.35229   0.35885   0.35990   0.36228
 Alpha virt. eigenvalues --    0.36889   0.37388   0.37555   0.39031   0.39878
 Alpha virt. eigenvalues --    0.40372   0.41476   0.42547   0.43289   0.44350
 Alpha virt. eigenvalues --    0.46258   0.46854   0.47052   0.47787   0.48500
 Alpha virt. eigenvalues --    0.49456   0.49508   0.50196   0.50434   0.51343
 Alpha virt. eigenvalues --    0.51677   0.52405   0.52789   0.53137   0.53434
 Alpha virt. eigenvalues --    0.54265   0.54755   0.55311   0.56113   0.56616
 Alpha virt. eigenvalues --    0.57670   0.58044   0.59369   0.60060   0.60877
 Alpha virt. eigenvalues --    0.61420   0.61842   0.62358   0.62690   0.62811
 Alpha virt. eigenvalues --    0.64185   0.64417   0.64692   0.65493   0.65679
 Alpha virt. eigenvalues --    0.66029   0.66466   0.66772   0.67564   0.67867
 Alpha virt. eigenvalues --    0.68246   0.68630   0.68981   0.69374   0.69837
 Alpha virt. eigenvalues --    0.70242   0.70787   0.70970   0.71066   0.71509
 Alpha virt. eigenvalues --    0.72173   0.72408   0.72791   0.72856   0.73824
 Alpha virt. eigenvalues --    0.74207   0.74321   0.74999   0.75102   0.75742
 Alpha virt. eigenvalues --    0.76149   0.76175   0.76874   0.77124   0.77256
 Alpha virt. eigenvalues --    0.77893   0.78194   0.78325   0.78678   0.78782
 Alpha virt. eigenvalues --    0.79195   0.80170   0.80770   0.81695   0.82039
 Alpha virt. eigenvalues --    0.83221   0.83447   0.84352   0.84747   0.85101
 Alpha virt. eigenvalues --    0.85707   0.86653   0.87975   0.88848   0.89257
 Alpha virt. eigenvalues --    0.89986   0.91199   0.92491   0.93551   0.94576
 Alpha virt. eigenvalues --    0.96929   0.98286   0.98860   1.00132   1.00693
 Alpha virt. eigenvalues --    1.02172   1.03171   1.03436   1.05874   1.06582
 Alpha virt. eigenvalues --    1.08070   1.08304   1.09424   1.10394   1.10584
 Alpha virt. eigenvalues --    1.11073   1.13416   1.14138   1.14560   1.16313
 Alpha virt. eigenvalues --    1.18291   1.20787   1.21683   1.22344   1.24555
 Alpha virt. eigenvalues --    1.25597   1.25736   1.26075   1.27176   1.28176
 Alpha virt. eigenvalues --    1.28354   1.30505   1.32429   1.34371   1.35247
 Alpha virt. eigenvalues --    1.36932   1.40272   1.42138   1.45068   1.46010
 Alpha virt. eigenvalues --    1.47120   1.47270   1.48086   1.49602   1.50789
 Alpha virt. eigenvalues --    1.51201   1.51594   1.52320   1.53678   1.54528
 Alpha virt. eigenvalues --    1.55904   1.56434   1.56913   1.57545   1.58437
 Alpha virt. eigenvalues --    1.58518   1.59230   1.59574   1.60337   1.60464
 Alpha virt. eigenvalues --    1.60522   1.61162   1.61307   1.61877   1.62181
 Alpha virt. eigenvalues --    1.62921   1.63028   1.63597   1.63954   1.64641
 Alpha virt. eigenvalues --    1.65332   1.65783   1.66303   1.66481   1.66901
 Alpha virt. eigenvalues --    1.67915   1.68467   1.68660   1.69231   1.69715
 Alpha virt. eigenvalues --    1.70699   1.71217   1.71452   1.72730   1.72840
 Alpha virt. eigenvalues --    1.73551   1.73654   1.74521   1.74818   1.75262
 Alpha virt. eigenvalues --    1.75911   1.76410   1.77363   1.78200   1.79062
 Alpha virt. eigenvalues --    1.79888   1.80407   1.80827   1.81568   1.81941
 Alpha virt. eigenvalues --    1.82811   1.83767   1.84816   1.85229   1.86148
 Alpha virt. eigenvalues --    1.86784   1.87850   1.90060   1.90863   1.91619
 Alpha virt. eigenvalues --    1.92622   1.93643   1.93862   1.95817   1.95985
 Alpha virt. eigenvalues --    1.97437   1.98167   1.98700   2.02393   2.03265
 Alpha virt. eigenvalues --    2.04189   2.05504   2.07187   2.08307   2.10222
 Alpha virt. eigenvalues --    2.11439   2.12305   2.12978   2.14795   2.15231
 Alpha virt. eigenvalues --    2.16211   2.16925   2.17833   2.18280   2.18529
 Alpha virt. eigenvalues --    2.19728   2.21202   2.21890   2.23104   2.25665
 Alpha virt. eigenvalues --    2.26603   2.27377   2.28356   2.28620   2.29723
 Alpha virt. eigenvalues --    2.30122   2.30136   2.32034   2.32369   2.33319
 Alpha virt. eigenvalues --    2.34023   2.35119   2.37332   2.37404   2.39544
 Alpha virt. eigenvalues --    2.40728   2.41170   2.41533   2.41773   2.42006
 Alpha virt. eigenvalues --    2.42971   2.43639   2.43984   2.45361   2.46110
 Alpha virt. eigenvalues --    2.46828   2.47564   2.49779   2.50730   2.51048
 Alpha virt. eigenvalues --    2.51183   2.52732   2.53023   2.53330   2.54122
 Alpha virt. eigenvalues --    2.55710   2.56688   2.57522   2.58122   2.58934
 Alpha virt. eigenvalues --    2.59169   2.59583   2.60387   2.60550   2.60742
 Alpha virt. eigenvalues --    2.61690   2.62287   2.62717   2.63164   2.63468
 Alpha virt. eigenvalues --    2.63703   2.65084   2.65526   2.66653   2.67232
 Alpha virt. eigenvalues --    2.67803   2.68563   2.69183   2.69425   2.70663
 Alpha virt. eigenvalues --    2.71228   2.72076   2.72230   2.73339   2.73676
 Alpha virt. eigenvalues --    2.74926   2.75429   2.76103   2.76478   2.77383
 Alpha virt. eigenvalues --    2.78072   2.78584   2.79922   2.80883   2.81619
 Alpha virt. eigenvalues --    2.82055   2.83033   2.83262   2.84227   2.84430
 Alpha virt. eigenvalues --    2.85637   2.86669   2.87834   2.89447   2.91191
 Alpha virt. eigenvalues --    2.92001   2.93830   2.94870   2.95495   2.96131
 Alpha virt. eigenvalues --    2.97320   2.97917   2.98869   2.99663   2.99963
 Alpha virt. eigenvalues --    3.02319   3.03401   3.06010   3.06307   3.09416
 Alpha virt. eigenvalues --    3.10862   3.13454   3.13943   3.17221   3.18039
 Alpha virt. eigenvalues --    3.19109   3.25094   3.28985   3.32509   3.36039
 Alpha virt. eigenvalues --    3.36195   3.38672   3.48991   3.50265   3.51953
 Alpha virt. eigenvalues --    3.54531   3.66289   3.68302   3.70296   3.71268
 Alpha virt. eigenvalues --    3.76172   3.79202   3.79679   3.80778   3.81403
 Alpha virt. eigenvalues --    3.81686   3.82541   3.83057   3.83441   3.83719
 Alpha virt. eigenvalues --    3.84273   3.84956   3.85468   3.86218   3.87048
 Alpha virt. eigenvalues --    3.89080   3.91390   3.93169   3.93411   3.94274
 Alpha virt. eigenvalues --    4.15720   4.16317   4.17010   4.18076   4.22935
 Alpha virt. eigenvalues --    4.24320   4.27579   4.28573   4.39100   4.39630
 Alpha virt. eigenvalues --    4.41087   4.42195   4.79375   4.81612   4.84035
 Alpha virt. eigenvalues --   23.98482  24.00800  24.01820  24.02410  24.03632
 Alpha virt. eigenvalues --   24.04191  24.05455  24.06441  24.08776  24.10200
 Alpha virt. eigenvalues --   24.11564  24.11656  24.11853  24.11984  24.14139
 Alpha virt. eigenvalues --   24.16028  35.67763
          Condensed to atoms (all electrons):
 Mulliken charges:
               1
     1  C   -0.626268
     2  C   -0.455405
     3  C   -0.029856
     4  C   -0.274894
     5  C    0.209023
     6  C    0.087564
     7  C    0.187112
     8  C    0.006461
     9  C   -0.016146
    10  C   -0.106385
    11  C   -0.201053
    12  C   -0.049613
    13  C   -0.430910
    14  C   -0.474875
    15  C   -0.476968
    16  C   -0.487996
    17  H    0.194405
    18  H    0.104528
    19  H    0.213986
    20  H    0.227265
    21  H    0.185686
    22  H    0.098025
    23  H    0.127794
    24  H    0.123443
    25  H   -0.063412
    26  H    0.077638
    27  H    0.149462
    28  H    0.126039
    29  H    0.051870
    30  H    0.045551
    31  H    0.116340
    32  H    0.090129
    33  H    0.107016
    34  H    0.101928
    35  H    0.104714
    36  H    0.135133
    37  H    0.147369
    38  H    0.068710
    39  H    0.088977
    40  H    0.093008
    41  H    0.145135
    42  H    0.098824
    43  H    0.101143
    44  H    0.133790
    45  H    0.101984
    46  H    0.086458
    47  H    0.159658
    48  H    0.086571
    49  H    0.112947
    50  H    0.152866
    51  N    0.021695
    52  H    0.106026
    53  H    0.117509
 Sum of Mulliken charges =   1.00000
 Mulliken charges with hydrogens summed into heavy atoms:
               1
     1  C   -0.185018
     2  C   -0.171694
     3  C    0.221381
     4  C    0.024039
     5  C    0.306443
     6  C    0.363065
     7  C    0.201338
     8  C    0.240310
     9  C    0.183821
    10  C    0.109695
    11  C   -0.003908
    12  C    0.196503
    13  C   -0.089136
    14  C   -0.147755
    15  C   -0.135168
    16  C   -0.135612
    51  N    0.021695
 APT charges:
               1
     1  C   -5.008294
     2  C    3.065383
     3  C   -1.575492
     4  C   -1.431859
     5  C    1.749647
     6  C    0.878888
     7  C   -3.812762
     8  C   -0.554443
     9  C    3.209547
    10  C   -0.060066
    11  C   -2.887199
    12  C   -4.727087
    13  C    3.440102
    14  C   -2.555173
    15  C   -4.244334
    16  C    0.792825
    17  H   -1.254038
    18  H    1.721793
    19  H    6.337690
    20  H   -0.535369
    21  H   -1.266233
    22  H   -3.690916
    23  H   -2.611456
    24  H    4.758970
    25  H    2.331792
    26  H    4.051909
    27  H   -1.695059
    28  H   -3.191244
    29  H    1.930041
    30  H    0.164885
    31  H   -4.249169
    32  H   -0.928315
    33  H    1.004005
    34  H    1.499244
    35  H   -0.308810
    36  H   -3.682970
    37  H   -1.155453
    38  H    3.434857
    39  H   -3.298900
    40  H    2.080848
    41  H    4.601932
    42  H   -2.229450
    43  H   -2.682411
    44  H   -0.856233
    45  H    3.275758
    46  H    4.635775
    47  H    1.779226
    48  H   -4.602873
    49  H   -0.298802
    50  H    4.220010
    51  N   -0.012564
    52  H    2.794919
    53  H    2.646930
 Sum of APT charges =   1.00000
 APT charges with hydrogens summed into heavy atoms:
               1
     1  C    0.794027
     2  C   -1.891767
     3  C    0.572021
     4  C   -0.964103
     5  C    3.844573
     6  C   -4.007415
     7  C    2.570939
     8  C   -2.156682
     9  C   -1.702314
    10  C    2.219337
    11  C   -2.811509
    12  C    1.687914
    13  C    0.947566
    14  C    0.828707
    15  C    0.970110
    16  C    0.111160
    51  N   -0.012564
 Electronic spatial extent (au):  <R**2>=         655388.2002
 Charge=              1.0000 electrons
 Dipole moment (field-independent basis, Debye):
    X=             46.1542    Y=            110.6298    Z=            126.2141  Tot=            174.0665
 Quadrupole moment (field-independent basis, Debye-Ang):
   XX=            342.7666   YY=           2445.8412   ZZ=           3215.2105
   XY=           1061.7584   XZ=           1213.2137   YZ=           2906.9570
 Traceless Quadrupole moment (field-independent basis, Debye-Ang):
   XX=          -1658.5062   YY=            444.5684   ZZ=           1213.9378
   XY=           1061.7584   XZ=           1213.2137   YZ=           2906.9570
 Octapole moment (field-independent basis, Debye-Ang**2):
  XXX=           1418.0474  YYY=          51545.2553  ZZZ=          79188.9661  XYY=          23460.2840
  XXY=           7838.5328  XXZ=           9033.5723  XZZ=          30943.0859  YZZ=          74017.6115
  YYZ=          64267.3718  XYZ=          27910.3245
 Hexadecapole moment (field-independent basis, Debye-Ang**3):
 XXXX=         -15171.8007 YYYY=        1016592.2579 ZZZZ=        1869811.7566 XXXY=          31714.2837
 XXXZ=          37871.1226 YYYX=         494774.9557 YYYZ=        1354328.6444 ZZZX=         763793.8509
 ZZZY=        1821071.9195 XXYY=         169263.3630 XXZZ=         228229.8232 YYZZ=        1632461.3894
 XXYZ=         206570.7063 YYXZ=         616723.6999 ZZXY=         711640.1504
 N-N= 1.377676896087D+03 E-N=-4.321818227635D+03  KE= 6.827650159220D+02
  Exact polarizability:       0.000       0.000       0.000       0.000       0.000       0.000
 Approx polarizability:     287.950      -1.223     289.384       1.006      -0.188     290.020
 D2PCM: PCM CHGder 2nd derivatives, FixD1E=F FixD2E=F DoIter=F DoCFld=F I1PDM=0
 Calling FoFJK, ICntrl=    100527 FMM=F ISym2X=0 I1Cent= 4 IOpClX= 0 NMat=1 NMatS=1 NMatT=0.
 -------------------------------------------------------------------
 Center     Atomic                   Forces (Hartrees/Bohr)
 Number     Number              X              Y              Z
 -------------------------------------------------------------------
      1        6           0.000722502    0.000299832   -0.001055495
      2        6          -0.001493852   -0.000398947    0.000129700
      3        6          -0.001008494    0.001137890    0.003112431
      4        6          -0.001560621    0.002699283   -0.001932477
      5        6          -0.000142869    0.000332495   -0.001891950
      6        6          -0.000656648    0.000445682    0.000710658
      7        6           0.000794687    0.000918096    0.000878970
      8        6          -0.013880230   -0.005705774    0.014737787
      9        6          -0.001669090   -0.001594799   -0.000961096
     10        6          -0.000363638    0.000263561    0.000038277
     11        6           0.001389325   -0.000754695    0.001507395
     12        6           0.000544538    0.000452375    0.000923846
     13        6           0.001473825   -0.000107636   -0.000059136
     14        6          -0.000481707   -0.000388987    0.000743417
     15        6          -0.000694466    0.000432132   -0.000504164
     16        6           0.000053624   -0.000618601   -0.000259608
     17        1           0.000716852   -0.000399777    0.000319675
     18        1           0.002180672   -0.000661539    0.001131850
     19        1          -0.001026199   -0.000582651   -0.001303071
     20        1          -0.000206825    0.000609479    0.000835357
     21        1          -0.000193487    0.000498597   -0.001658767
     22        1           0.000495248   -0.000364541    0.000904508
     23        1           0.000595504    0.000771609    0.000017084
     24        1          -0.001675833   -0.001689406   -0.000744296
     25        1          -0.000218280   -0.000797601   -0.000233584
     26        1           0.000502368   -0.000404124    0.000654599
     27        1           0.001093622    0.000488521    0.000048965
     28        1           0.000441686   -0.000369438    0.000810458
     29        1          -0.001201024   -0.000613501    0.000403024
     30        1          -0.001967903    0.001411590   -0.000538860
     31        1           0.008976413   -0.008668138   -0.011155474
     32        1          -0.000993393   -0.000462479    0.000136304
     33        1           0.000335823    0.000123158   -0.000672309
     34        1          -0.001066356   -0.000613898    0.001223076
     35        1          -0.000141025    0.000804832   -0.000751815
     36        1          -0.000192371   -0.000402809   -0.001470897
     37        1           0.000528508   -0.000607791    0.000555338
     38        1          -0.000024176    0.000065616   -0.000498257
     39        1           0.000961765   -0.000080613   -0.000564423
     40        1          -0.000218012    0.000119758   -0.000935933
     41        1          -0.000161046   -0.000691902    0.000081582
     42        1          -0.001483871    0.000421866   -0.000020884
     43        1           0.001086362    0.000022436    0.001463467
     44        1          -0.000830475    0.000128179   -0.001126272
     45        1          -0.000216720   -0.000637874    0.000651025
     46        1           0.000492307   -0.000596767   -0.000181623
     47        1           0.000891898    0.000242513   -0.000030845
     48        1           0.000153226    0.001219431    0.000956098
     49        1           0.000093884   -0.000698881    0.000005762
     50        1          -0.000339250    0.000298089   -0.000495827
     51        7           0.001775453   -0.000144824    0.001273485
     52        1           0.001707432    0.001326424    0.000947027
     53        1           0.006100337    0.013524549   -0.006154103
 -------------------------------------------------------------------
 Cartesian Forces:  Max     0.014737787 RMS     0.002636741
 FormGI is forming the generalized inverse of G from B-inverse, IUseBI=4.

 GradGradGradGradGradGradGradGradGradGradGradGradGradGradGradGradGradGrad
 Berny optimization.
 Internal  Forces:  Max     0.016173795 RMS     0.001536493
 Search for a local minimum.
 Step number   1 out of a maximum of  308
 All quantities printed in internal units (Hartrees-Bohrs-Radians)
 Mixed Optimization -- RFO/linear search
 Second derivative matrix not updated -- analytic derivatives used.
 ITU=  0
     Eigenvalues ---   -0.00112   0.00060   0.00147   0.00188   0.00210
     Eigenvalues ---    0.00222   0.00250   0.00259   0.00264   0.00280
     Eigenvalues ---    0.00333   0.00361   0.00460   0.00484   0.00732
     Eigenvalues ---    0.01382   0.03257   0.03306   0.03356   0.03416
     Eigenvalues ---    0.03464   0.03629   0.03640   0.03673   0.03700
     Eigenvalues ---    0.03734   0.03744   0.03759   0.03777   0.03792
     Eigenvalues ---    0.03797   0.03840   0.03874   0.03918   0.03972
     Eigenvalues ---    0.04030   0.04055   0.04181   0.04272   0.04332
     Eigenvalues ---    0.04350   0.04394   0.04409   0.04460   0.04463
     Eigenvalues ---    0.04474   0.04566   0.04778   0.05596   0.06193
     Eigenvalues ---    0.06423   0.06716   0.06833   0.07012   0.07106
     Eigenvalues ---    0.07160   0.07175   0.07244   0.07300   0.07424
     Eigenvalues ---    0.07553   0.07632   0.08179   0.09759   0.09963
     Eigenvalues ---    0.10145   0.10551   0.11070   0.11217   0.11745
     Eigenvalues ---    0.11833   0.11859   0.11885   0.11962   0.12051
     Eigenvalues ---    0.13183   0.13249   0.13276   0.13509   0.13632
     Eigenvalues ---    0.13633   0.13819   0.13960   0.15716   0.15742
     Eigenvalues ---    0.15772   0.15800   0.16477   0.17521   0.18490
     Eigenvalues ---    0.19961   0.20656   0.21192   0.21568   0.21703
     Eigenvalues ---    0.22293   0.23411   0.23641   0.23830   0.24486
     Eigenvalues ---    0.25246   0.27359   0.28187   0.28518   0.29021
     Eigenvalues ---    0.29389   0.29685   0.29885   0.30032   0.31092
     Eigenvalues ---    0.31277   0.31445   0.32322   0.32465   0.32606
     Eigenvalues ---    0.32698   0.32766   0.32948   0.33029   0.33110
     Eigenvalues ---    0.33176   0.33245   0.33286   0.33306   0.33374
     Eigenvalues ---    0.33422   0.33496   0.33602   0.33620   0.33670
     Eigenvalues ---    0.33709   0.33733   0.33774   0.33830   0.33887
     Eigenvalues ---    0.33909   0.33950   0.34014   0.34084   0.34120
     Eigenvalues ---    0.34130   0.34215   0.34443   0.34464   0.34494
     Eigenvalues ---    0.34602   0.35327   0.35947   0.36727   0.37457
     Eigenvalues ---    0.38642   0.39800   0.45725
 RFO step:  Lambda=-3.90986511D-03 EMin=-1.11908027D-03
 Linear search not attempted -- first point.
 Iteration  1 RMS(Cart)=  0.17518858 RMS(Int)=  0.01615962
 Iteration  2 RMS(Cart)=  0.03756469 RMS(Int)=  0.00047947
 Iteration  3 RMS(Cart)=  0.00116130 RMS(Int)=  0.00006124
 Iteration  4 RMS(Cart)=  0.00000122 RMS(Int)=  0.00006124
 Iteration  5 RMS(Cart)=  0.00000000 RMS(Int)=  0.00006124
 Variable       Old X    -DE/DX   Delta X   Delta X   Delta X     New X
                                 (Linear)    (Quad)   (Total)
    R1        2.89232  -0.00169   0.00000  -0.00604  -0.00604   2.88628
    R2        2.07155  -0.00153   0.00000  -0.00282  -0.00282   2.06873
    R3        2.06401  -0.00058   0.00000  -0.00142  -0.00142   2.06259
    R4        2.88257  -0.00010   0.00000  -0.00637  -0.00637   2.87620
    R5        2.85959   0.00143   0.00000   0.00285   0.00285   2.86244
    R6        2.06868  -0.00110   0.00000  -0.00308  -0.00308   2.06560
    R7        2.06281  -0.00103   0.00000  -0.00103  -0.00103   2.06178
    R8        2.86233   0.00246   0.00000   0.01020   0.01020   2.87254
    R9        2.86268   0.00313   0.00000   0.00243   0.00243   2.86511
   R10        2.06573  -0.00087   0.00000  -0.00279  -0.00279   2.06294
   R11        2.06538  -0.00109   0.00000  -0.00394  -0.00394   2.06144
   R12        2.88363   0.00123   0.00000  -0.00018  -0.00018   2.88345
   R13        2.85267   0.00280   0.00000   0.00528   0.00528   2.85795
   R14        2.06518   0.00025   0.00000   0.00111   0.00111   2.06629
   R15        2.05259   0.00212   0.00000   0.00712   0.00712   2.05971
   R16        2.87090   0.00059   0.00000   0.00656   0.00656   2.87747
   R17        2.87862   0.00135   0.00000   0.00321   0.00321   2.88183
   R18        2.07117  -0.00117   0.00000  -0.00270  -0.00270   2.06847
   R19        2.06433   0.00215   0.00000   0.00657   0.00657   2.07090
   R20        2.89013  -0.00145   0.00000  -0.00460  -0.00460   2.88554
   R21        2.06735  -0.00119   0.00000  -0.00294  -0.00294   2.06441
   R22        2.06761  -0.00062   0.00000  -0.00264  -0.00264   2.06497
   R23        2.87783   0.00208   0.00000   0.00391   0.00391   2.88174
   R24        2.07157  -0.00070   0.00000  -0.00195  -0.00195   2.06962
   R25        2.06726   0.00084   0.00000   0.00177   0.00177   2.06903
   R26        2.88527   0.00161   0.00000   0.00301   0.00301   2.88829
   R27        2.02201   0.01617   0.00000   0.04403   0.04403   2.06604
   R28        2.02201   0.01577   0.00000   0.04039   0.04039   2.06239
   R29        2.86422   0.00063   0.00000   0.00211   0.00211   2.86633
   R30        2.07476  -0.00025   0.00000  -0.00153  -0.00153   2.07323
   R31        2.07809  -0.00176   0.00000  -0.00483  -0.00483   2.07326
   R32        2.87223  -0.00029   0.00000  -0.00096  -0.00096   2.87126
   R33        2.07222  -0.00094   0.00000  -0.00284  -0.00284   2.06938
   R34        2.07620  -0.00046   0.00000  -0.00113  -0.00113   2.07507
   R35        2.86357   0.00088   0.00000   0.00297   0.00297   2.86654
   R36        2.07145   0.00079   0.00000   0.00153   0.00153   2.07298
   R37        2.07239   0.00037   0.00000   0.00086   0.00086   2.07325
   R38        2.87316  -0.00009   0.00000  -0.00080  -0.00080   2.87237
   R39        2.07485  -0.00067   0.00000  -0.00167  -0.00167   2.07318
   R40        2.06638   0.00091   0.00000   0.00221   0.00221   2.06860
   R41        2.07212  -0.00150   0.00000  -0.00378  -0.00378   2.06834
   R42        2.06735   0.00017   0.00000   0.00096   0.00096   2.06831
   R43        2.06275   0.00109   0.00000   0.00261   0.00261   2.06537
   R44        2.06684   0.00087   0.00000   0.00255   0.00255   2.06939
   R45        2.07062  -0.00078   0.00000  -0.00198  -0.00198   2.06864
   R46        2.06729  -0.00066   0.00000  -0.00179  -0.00179   2.06550
   R47        2.06375   0.00073   0.00000   0.00160   0.00160   2.06535
   R48        2.07026  -0.00070   0.00000  -0.00154  -0.00154   2.06872
   R49        2.06498   0.00105   0.00000   0.00299   0.00299   2.06797
   R50        2.07408  -0.00151   0.00000  -0.00446  -0.00446   2.06963
   R51        2.06683  -0.00002   0.00000  -0.00006  -0.00006   2.06678
   R52        2.06713  -0.00065   0.00000  -0.00164  -0.00164   2.06550
    A1        1.92105  -0.00029   0.00000  -0.00511  -0.00511   1.91593
    A2        1.94053  -0.00009   0.00000   0.00030   0.00029   1.94082
    A3        2.05749   0.00016   0.00000   0.00090   0.00090   2.05838
    A4        1.87160   0.00002   0.00000  -0.00204  -0.00205   1.86955
    A5        1.82598   0.00041   0.00000   0.00285   0.00286   1.82884
    A6        1.83546  -0.00020   0.00000   0.00318   0.00317   1.83863
    A7        1.91825   0.00089   0.00000   0.01766   0.01765   1.93591
    A8        1.93000   0.00047   0.00000  -0.00045  -0.00051   1.92948
    A9        2.02863  -0.00137   0.00000  -0.00279  -0.00282   2.02580
   A10        1.87601  -0.00064   0.00000  -0.00347  -0.00351   1.87250
   A11        1.83241   0.00048   0.00000  -0.00115  -0.00118   1.83123
   A12        1.87069   0.00017   0.00000  -0.01042  -0.01045   1.86024
   A13        1.94848   0.00008   0.00000   0.00764   0.00764   1.95611
   A14        1.89924   0.00138   0.00000   0.00618   0.00618   1.90542
   A15        2.03568  -0.00090   0.00000  -0.00353  -0.00353   2.03216
   A16        1.89433  -0.00059   0.00000  -0.01216  -0.01217   1.88216
   A17        1.82754   0.00095   0.00000  -0.00294  -0.00293   1.82461
   A18        1.85195  -0.00102   0.00000   0.00333   0.00333   1.85528
   A19        1.93982  -0.00025   0.00000  -0.00507  -0.00498   1.93483
   A20        1.90187   0.00058   0.00000   0.01686   0.01672   1.91859
   A21        2.02526   0.00118   0.00000   0.01229   0.01216   2.03743
   A22        1.89653  -0.00037   0.00000  -0.01930  -0.01927   1.87726
   A23        1.83328  -0.00041   0.00000  -0.00959  -0.00957   1.82371
   A24        1.86185  -0.00087   0.00000   0.00200   0.00170   1.86355
   A25        1.92343  -0.00100   0.00000  -0.00288  -0.00289   1.92054
   A26        1.92236  -0.00003   0.00000   0.00003   0.00003   1.92238
   A27        1.93813   0.00097   0.00000   0.00424   0.00424   1.94237
   A28        1.90342   0.00040   0.00000  -0.00107  -0.00107   1.90234
   A29        1.89971   0.00037   0.00000   0.00581   0.00580   1.90552
   A30        1.87581  -0.00070   0.00000  -0.00618  -0.00618   1.86963
   A31        1.93273   0.00011   0.00000  -0.00480  -0.00482   1.92791
   A32        1.94764  -0.00006   0.00000   0.00142   0.00144   1.94908
   A33        1.92986  -0.00049   0.00000  -0.00475  -0.00478   1.92508
   A34        1.89773   0.00041   0.00000   0.00748   0.00749   1.90521
   A35        1.90497  -0.00013   0.00000  -0.00317  -0.00321   1.90176
   A36        1.84854   0.00017   0.00000   0.00429   0.00430   1.85284
   A37        1.90273   0.00287   0.00000   0.01539   0.01531   1.91803
   A38        1.95414  -0.00153   0.00000  -0.01456  -0.01450   1.93964
   A39        1.93114  -0.00044   0.00000   0.00642   0.00628   1.93742
   A40        1.91783  -0.00117   0.00000  -0.01451  -0.01446   1.90337
   A41        1.90153  -0.00049   0.00000   0.00447   0.00431   1.90584
   A42        1.85560   0.00067   0.00000   0.00260   0.00264   1.85824
   A43        1.92143   0.00041   0.00000   0.00972   0.00955   1.93098
   A44        1.90846   0.00255   0.00000   0.03662   0.03657   1.94503
   A45        1.90846   0.00054   0.00000   0.00856   0.00867   1.91713
   A46        1.90846  -0.00140   0.00000  -0.00647  -0.00706   1.90140
   A47        1.90846  -0.00070   0.00000  -0.00846  -0.00860   1.89986
   A48        1.90848  -0.00141   0.00000  -0.04038  -0.04063   1.86786
   A49        1.96823  -0.00074   0.00000  -0.00651  -0.00661   1.96162
   A50        1.88922   0.00123   0.00000   0.01861   0.01861   1.90783
   A51        1.91014  -0.00001   0.00000  -0.00620  -0.00634   1.90380
   A52        1.91205   0.00006   0.00000   0.00593   0.00593   1.91797
   A53        1.93186  -0.00026   0.00000  -0.01150  -0.01161   1.92025
   A54        1.84799  -0.00021   0.00000   0.00086   0.00090   1.84889
   A55        1.98733  -0.00160   0.00000  -0.00701  -0.00701   1.98033
   A56        1.89201   0.00032   0.00000   0.00022   0.00022   1.89223
   A57        1.90034   0.00054   0.00000   0.00261   0.00261   1.90296
   A58        1.91192   0.00053   0.00000   0.00164   0.00163   1.91355
   A59        1.91406   0.00058   0.00000   0.00330   0.00330   1.91736
   A60        1.85329  -0.00030   0.00000  -0.00036  -0.00037   1.85293
   A61        1.97068  -0.00076   0.00000  -0.00958  -0.00962   1.96106
   A62        1.90361   0.00027   0.00000   0.00329   0.00330   1.90691
   A63        1.90552   0.00050   0.00000   0.00174   0.00164   1.90717
   A64        1.91418   0.00032   0.00000   0.00562   0.00565   1.91983
   A65        1.92579  -0.00045   0.00000  -0.00820  -0.00823   1.91756
   A66        1.83933   0.00020   0.00000   0.00850   0.00851   1.84784
   A67        1.99562   0.00054   0.00000   0.00043   0.00042   1.99605
   A68        1.90479  -0.00002   0.00000   0.00276   0.00275   1.90754
   A69        1.87934  -0.00008   0.00000  -0.00040  -0.00040   1.87894
   A70        1.91609  -0.00014   0.00000   0.00236   0.00235   1.91844
   A71        1.91236  -0.00032   0.00000  -0.00320  -0.00320   1.90916
   A72        1.84971  -0.00003   0.00000  -0.00221  -0.00221   1.84750
   A73        1.95397  -0.00085   0.00000  -0.00962  -0.00961   1.94436
   A74        1.93626   0.00085   0.00000   0.00616   0.00608   1.94233
   A75        1.93101   0.00165   0.00000   0.01542   0.01537   1.94638
   A76        1.88762  -0.00073   0.00000  -0.01270  -0.01272   1.87491
   A77        1.87598  -0.00029   0.00000  -0.00013  -0.00009   1.87588
   A78        1.87605  -0.00071   0.00000   0.00050   0.00036   1.87641
   A79        1.93571   0.00084   0.00000   0.00459   0.00459   1.94030
   A80        1.95300   0.00030   0.00000   0.00222   0.00222   1.95523
   A81        1.94566  -0.00049   0.00000  -0.00114  -0.00114   1.94452
   A82        1.88113  -0.00074   0.00000  -0.00714  -0.00714   1.87399
   A83        1.87561  -0.00004   0.00000   0.00087   0.00087   1.87648
   A84        1.86908   0.00009   0.00000   0.00019   0.00019   1.86928
   A85        1.95378  -0.00114   0.00000  -0.00604  -0.00607   1.94771
   A86        1.94489   0.00053   0.00000  -0.00191  -0.00192   1.94297
   A87        1.93475   0.00074   0.00000   0.00803   0.00802   1.94277
   A88        1.87906  -0.00003   0.00000  -0.00275  -0.00278   1.87628
   A89        1.85978   0.00104   0.00000   0.01580   0.01578   1.87556
   A90        1.88791  -0.00115   0.00000  -0.01298  -0.01297   1.87494
   A91        1.94741  -0.00052   0.00000  -0.00578  -0.00579   1.94163
   A92        1.95281   0.00116   0.00000   0.00986   0.00987   1.96267
   A93        1.94154  -0.00038   0.00000  -0.00276  -0.00278   1.93876
   A94        1.87562  -0.00021   0.00000  -0.00110  -0.00109   1.87453
   A95        1.87591   0.00018   0.00000  -0.00101  -0.00103   1.87487
   A96        1.86635  -0.00025   0.00000   0.00071   0.00071   1.86706
   A97        1.96797   0.00075   0.00000  -0.00623  -0.00624   1.96173
   A98        1.89187  -0.00041   0.00000   0.00496   0.00497   1.89684
   A99        1.97146  -0.00137   0.00000   0.00752   0.00748   1.97894
   A100       1.86454  -0.00026   0.00000   0.00775   0.00775   1.87229
   A101       1.88798   0.00005   0.00000  -0.00986  -0.00984   1.87813
   A102       1.87486   0.00134   0.00000  -0.00389  -0.00390   1.87096
    D1        0.44107   0.00053   0.00000   0.05733   0.05732   0.49839
[...]
 0.00001979,-0.00005554,0.00005343,-0.00004335,0.00000157,-0.00000198,0
 .00000045,-0.00000162,0.00000429,-0.00000302,-0.00001072,0.00000665,-0
 .00000204,-0.00000889,0.00000296,-0.00000517,-0.00000208,0.00000108,-0
 .00000302,-0.00000937,0.00000411,-0.00000745,0.00009807,-0.00002869,0.
 00032021,0.00000197,-0.00000161,-0.00000028,0.00000261,0.00000020,0.00
 000055,-0.00000037,0.00000087,-0.00000048,-0.00000131,0.00000104,-0.00
 000049,-0.00000104,-0.00000051,-0.00000607,0.00000169,0.00000868,-0.00
 000469,0.00000336,0.00000147,0.00000201,-0.00000113,-0.00000023,-0.000
 00206,-0.00000189,-0.00000066,0.00000334,0.00000052,0.00000084,-0.0000
 0186,-0.00000290,-0.00000152,-0.00000045,-0.00000326,0.00000173,-0.000
 00179,-0.00000299,0.00000166,0.00000263,0.00000102,0.00000145,0.000001
 03,-0.00001218,0.00007480,0.00064089,0.00020779,-0.00066883,0.00052784
 ,-0.00959639,0.00229642,-0.01393365,0.00520975,-0.00040133,0.00730280,
 0.13127675,-0.01395449,0.25623430,-0.09280294,-0.00290725,0.00131083,-
 0.11559748,-0.01197185,-0.00223179,-0.08850980,0.00446503,-0.01009265,
 -0.09199863,0.00897837,0.00339555,0.00688698,-0.01176475,-0.00630958,0
 .01220652,0.01945657,0.00068108,-0.02022522,0.00127310,0.00520017,-0.0
 1576621,0.00935951,-0.03443134,0.00219414,0.00167276,0.00477032,-0.005
 14850,0.00200998,-0.00163297,-0.00188290,0.00108018,-0.00274844,-0.007
 34942,-0.00016907,0.00549738,0.00077114,-0.00074438,-0.00076249,-0.000
 14775,0.00003274,0.00016201,-0.00121087,-0.00039740,-0.00106457,-0.000
 13683,-0.00066644,0.00054435,-0.00061142,-0.00303217,-0.00263644,-0.01
 132169,0.02434462,0.02855959,-0.00216478,-0.00396181,0.00178083,-0.007
 39778,-0.03243915,0.00371784,-0.01397505,-0.00211375,0.00154047,-0.026
 72721,-0.00709557,0.00476124,0.00097054,-0.00084179,0.00319398,0.00268
 922,-0.00216280,0.00399948,0.00109262,-0.00096135,-0.00049181,0.000563
 65,-0.00012657,-0.00056347,-0.00004961,0.00007161,0.00045432,0.0009342
 1,-0.00123926,-0.00007458,0.00033046,0.00013994,0.00044336,-0.00012408
 ,-0.00062620,0.00076137,0.00052108,0.00022607,0.00034668,-0.00004592,0
 .00017204,0.00007467,0.00028652,-0.00010459,-0.00012059,0.00000146,0.0
 0002960,-0.00001928,-0.00000891,0.00000020,0.00014352,-0.00010235,0.00
 001866,-0.00043422,0.00062750,0.00154329,-0.00076247,-0.00006081,-0.00
 017701,0.00003874,0.00008048,-0.00003368,-0.00001482,0.00030284,-0.000
 05047,-0.00019820,0.00016621,-0.00004738,-0.00008758,0.00026217,-0.000
 21111,-0.00015467,0.00022043,0.00002254,-0.00015206,-0.00023039,0.0002
 9376,0.00054136,-0.00001060,0.00012857,0.00009124,0.00031042,-0.000191
 92,0.00004278,-0.00128040,0.00020988,-0.00263195,-0.00000008,0.0001218
 2,-0.00000392,0.00032179,0.00011703,-0.00006163,0.00018995,0.00021861,
 -0.00024115,0.47056159,-0.01283569,-0.10487158,-0.00261083,-0.00442590
 ,-0.09066464,-0.00237191,-0.00016296,-0.08734362,0.00892507,0.01094621
 ,-0.09950728,-0.00642998,-0.00521625,0.00320957,-0.00067703,-0.0046829
 0,-0.02209599,0.00723537,0.01631904,0.00353431,0.00147366,0.00114154,-
 0.00008236,-0.00309498,0.00019098,-0.00164973,-0.00402691,0.00600557,0
 .00096511,0.00077264,-0.00024060,0.00059980,0.00085590,-0.00161553,-0.
 00037967,-0.00020600,0.00028657,0.00028201,0.00047586,0.00037804,-0.00
 027471,-0.00034483,0.00142102,0.00038598,0.00024454,-0.00021954,0.0000
 4819,0.00023108,0.01353926,-0.02529256,-0.02929744,-0.00063429,-0.0023
 4916,0.00031753,-0.00527692,-0.02501467,0.00541436,-0.00307511,-0.0120
 9701,0.00032594,-0.03664046,-0.00845267,0.00546159,0.01031902,0.001366
 74,-0.00280131,0.01801127,-0.01169669,0.03105842,-0.00959533,0.0034975
 1,-0.01542568,0.00019996,0.00047449,0.00051958,-0.00020304,-0.00002177
 ,-0.00009140,-0.00043028,0.00094053,-0.00058217,-0.00046664,0.00124413
 ,-0.00069557,-0.00054039,0.00007567,0.00039516,0.00021283,0.00062854,-
 0.00038889,0.00008572,-0.00011188,0.00012685,0.00002326,0.00029604,0.0
 0016372,0.00008384,-0.00002495,0.00011258,-0.00004314,0.00002868,-0.00
 013259,-0.00002574,0.00000375,-0.00003338,0.00000704,0.00005828,0.0000
 6382,-0.00074570,-0.00135484,0.00090368,0.00002047,0.00049998,-0.00020
 920,-0.00002854,0.00006073,0.00009837,-0.00016012,0.00018820,-0.000067
 50,-0.00020039,0.00001274,0.00016889,0.00011319,0.00025254,0.00005139,
 -0.00027299,0.00000179,0.00003982,0.00029102,-0.00020320,-0.00043289,-
 0.00008462,-0.00003497,0.00006138,0.00010167,0.00010524,0.00026039,-0.
 00040684,0.00028408,-0.00023625,-0.00001806,0.00000879,-0.00002589,0.0
 0033339,0.00003765,-0.00014337,0.00015685,0.00007024,-0.00003501,0.008
 16883,0.47465851,-0.00017696,0.00247907,-0.08530145,0.00188954,0.00075
 507,-0.08836691,-0.00095810,0.00792076,-0.10580226,0.01033663,-0.01502
 306,-0.09846743,0.01232592,-0.02401683,-0.02509046,0.00747276,0.017374
 62,-0.00543306,0.02985214,0.00794975,-0.00087703,-0.00706846,-0.003207
 43,-0.00004094,-0.00122296,-0.00208344,-0.00628289,-0.00475709,0.00088
 868,-0.00087627,-0.00541368,0.00613000,-0.00480807,0.00044056,0.000122
 64,0.00206605,0.00147184,-0.00275882,-0.00060010,-0.00030732,0.0000376
 6,0.00041169,0.00218389,0.00003676,0.00092125,0.00009213,-0.00024744,0
 .00012358,0.00007526,0.00132063,0.00058173,0.00409222,-0.00706258,-0.0
 0892440,-0.00660783,-0.02691134,0.00557659,0.00405821,0.01940285,-0.00
 299726,0.00540442,0.00145244,-0.00197214,-0.02608391,-0.00689606,0.006
 13119,-0.00689161,0.00314220,-0.01368149,-0.01702411,0.01150853,-0.029
 71713,-0.00080404,0.00034990,0.00177089,-0.00004917,0.00034593,-0.0002
 0360,0.00000317,-0.00054755,0.00030651,0.00060111,-0.00032120,0.000585
 21,0.00038019,0.00029631,0.00120093,0.00043044,0.00042343,0.00197796,0
 .00055410,-0.00039543,0.00015643,-0.00013662,-0.00022790,0.00025294,0.
 00024173,0.00025777,0.00030350,0.00005091,0.00014600,-0.00000521,-0.00
 017346,0.00001519,-0.00003731,-0.00046635,0.00014568,-0.00113954,0.000
 52443,0.00149060,-0.00040193,0.00019669,0.00005140,0.00028373,-0.00003
 976,0.00000124,-0.00007974,-0.00002565,-0.00019945,0.00015308,0.000113
 10,0.00003194,-0.00007681,-0.00016081,0.00018265,-0.00000845,0.0000904
 9,-0.00019550,0.00024714,0.00040704,-0.00039413,-0.00067759,-0.0000365
 1,-0.00009266,-0.00001701,0.00010271,-0.00000087,0.00009363,-0.0000583
 2,0.00021207,-0.00016162,-0.00006972,0.00005816,0.00001760,-0.00011754
 ,-0.00005210,0.00006712,0.00001816,0.00003720,-0.00005387,-0.00457062,
 0.00507944,0.45810037,0.00000124,-0.00001048,0.00000485,0.00008560,0.0
 0008475,0.00024979,-0.00000503,0.00001089,0.00000394,0.00002333,0.0000
 1612,0.00000781,0.00000448,-0.00000360,0.00000162,-0.00000136,0.000003
 11,0.00000305,0.00120439,-0.00091025,0.00053510,-0.00000281,-0.0000029
 3,-0.00000757,0.00232600,-0.00771391,0.01019227,-0.00000182,-0.0000017
 5,-0.00000162,-0.00000133,0.00000230,-0.00000107,-0.00000005,0.0000003
 8,-0.00000164,0.00000092,-0.00000102,-0.00000017,0.00000058,-0.0000004
 6,0.00000089,-0.06622019,0.03990691,-0.05736070,-0.00000125,-0.0000008
 8,0.00000043,-0.00000098,-0.00000016,0.00000089,0.00000426,-0.00000525
 ,-0.00000869,-0.00000219,-0.00000097,-0.00000215,0.00000029,0.00000208
 ,-0.00000212,-0.00002324,0.00000362,-0.00000621,-0.00013196,0.00005420
 ,-0.00004760,-0.00000190,0.00000402,0.00000199,-0.00000605,-0.00001108
 ,-0.00000994,-0.00005916,-0.00001301,-0.00001919,0.00018871,0.00014515
 ,-0.00025031,0.00001307,0.00000162,-0.00000804,-0.00000002,0.00000042,
 -0.00000139,-0.00000063,0.00000012,0.00000011,-0.00000070,0.00000130,-
 0.00000025,0.00000474,-0.00000071,-0.00000151,0.00000047,-0.00000094,0
 .00000034,0.00000004,0.00000005,-0.00000017,-0.00000040,0.00000025,-0.
 00000014,-0.00000035,0.00000019,0.00000011,-0.00000047,0.00000023,-0.0
 0000096,0.00000018,0.00000087,0.00000029,-0.00000002,0.00000071,0.0000
 0145,-0.00000007,-0.00000073,-0.00000035,-0.00000053,0.00000050,0.0000
 0022,-0.00000016,0.00000002,-0.00000031,0.00022880,-0.00004920,-0.0006
 7839,-0.00016549,0.00091620,0.00233152,-0.00698510,0.01782962,-0.02480
 037,0.00231286,-0.00594315,0.00949090,-0.00000135,-0.00000044,0.000000
 30,0.00000065,-0.00000066,-0.00000002,0.00000052,-0.00000083,-0.000001
 39,-0.00000080,0.00000192,0.00000046,0.00000077,-0.00000020,0.00000061
 ,0.00002608,-0.00001412,-0.00008571,0.06718537,-0.00000137,0.00000928,
 -0.00000323,-0.00012972,-0.00004032,-0.00020455,0.00001524,0.00000023,
 0.00000959,-0.00002109,-0.00001178,-0.00000768,-0.00000194,0.00000226,
 -0.00000174,0.00000193,0.00000183,0.00000061,-0.00060039,0.00053654,0.
 00000726,0.00000361,0.00000010,0.00000051,-0.00401039,0.00753268,-0.01
 185505,0.00000178,-0.00000142,-0.00000133,0.00000410,0.00000034,0.0000
 0020,0.00000098,0.00000159,0.00000240,-0.00000226,-0.00000079,0.000000
 43,-0.00000046,0.00000159,0.00000012,0.03979914,-0.12643055,0.11511109
 ,-0.00000557,0.00000048,-0.00000009,0.00000091,-0.00000067,0.00000070,
 -0.00000381,0.00000477,0.00000788,-0.00000052,-0.00000135,0.00000130,-
 0.00000076,-0.00000336,0.00000115,-0.00000044,-0.00000693,0.00000592,0
 .00007297,-0.00004270,0.00001906,-0.00000083,-0.00000121,0.00000010,0.
 00000250,0.00000128,0.00000281,0.00004290,-0.00001921,0.00003854,-0.00
 018021,-0.00008954,0.00035589,0.00000606,-0.00000550,-0.00000584,-0.00
 000118,-0.00000090,-0.00000039,0.00000036,-0.00000084,-0.00000074,0.00
 000008,0.00000047,-0.00000034,-0.00000078,-0.00000137,-0.00000090,-0.0
 0000041,-0.00000014,0.00000019,-0.00000069,-0.00000036,-0.00000003,0.0
 0000047,0.00000016,0.00000033,0.00000020,-0.00000020,-0.00000040,0.000
 00038,0.00000030,0.00000001,0.00000015,0.00000127,-0.00000045,0.000000
 96,0.00000024,-0.00000042,-0.00000027,-0.00000030,-0.00000016,-0.00000
 047,0.00000059,0.00000012,0.00000100,0.00000019,-0.00000011,-0.0005285
 3,0.00097735,0.00052871,0.00130855,0.00022536,-0.00268676,-0.00077569,
 -0.00062117,-0.00118031,0.00934288,-0.01466463,0.02310083,0.00000014,-
 0.00000216,-0.00000074,-0.00000042,0.00000061,-0.00000109,0.00000136,-
 0.00000029,-0.00000054,0.00000098,-0.00000006,0.00000055,-0.00000008,0
 .00000046,-0.00000048,-0.00003704,0.00001854,0.00009016,-0.04430165,0.
 13262884,-0.00000964,-0.00002794,0.00000354,-0.00016330,-0.00015421,0.
 00027678,0.00003261,0.00002659,-0.00003836,0.00000421,0.00003130,0.000
 02588,-0.00000613,-0.00000743,-0.00000357,-0.00000303,0.00001240,0.000
 01891,-0.00140481,0.00047846,0.00106938,-0.00000318,-0.00000721,0.0000
 1112,-0.00798715,0.01579397,-0.02318231,-0.00000014,-0.00001253,-0.000
 00872,-0.00000054,0.00000717,0.00000140,0.00000504,-0.00000302,-0.0000
 1016,-0.00000006,-0.00000320,-0.00000031,0.00000242,0.00000697,0.00000
 203,-0.05680112,0.11421599,-0.20994998,0.00000436,0.00000286,-0.000001
 12,-0.00000079,-0.00000131,-0.00000312,0.00000716,-0.00000501,-0.00001
 156,-0.00000178,-0.00000059,-0.00000193,0.00000717,0.00000046,-0.00000
 378,0.00001930,-0.00003741,-0.00003333,0.00000039,0.00004347,0.0001294
 1,-0.00000242,0.00000054,-0.00000066,-0.00000909,-0.00000574,-0.000016
 49,0.00009136,-0.00000127,-0.00003978,0.00062114,-0.00011825,0.0002924
 4,0.00000955,-0.00002723,0.00000242,-0.00000542,0.00000030,0.00000395,
 0.00000064,-0.00000005,0.00000099,0.00000406,0.00000317,0.00000244,0.0
 0000773,-0.00000028,-0.00000277,-0.00000031,-0.00000172,-0.00000032,0.
 00000260,-0.00000164,-0.00000125,0.00000011,0.00000065,0.00000025,0.00
 000061,0.00000084,0.00000038,-0.00000009,-0.00000059,-0.00000193,0.000
 00099,0.00000080,0.00000011,0.00000186,0.00000356,0.00000173,-0.000001
 22,0.00000006,-0.00000012,0.00000112,-0.00000161,0.00000027,0.00000174
 ,0.00000139,-0.00000323,-0.00037405,0.00003898,0.00139026,0.00285257,-
 0.00285578,-0.00439759,0.00073388,-0.00041187,-0.00064705,0.00177591,-
 0.00358415,0.00366899,-0.00000032,0.00000211,0.00000082,0.00000237,-0.
 00000094,0.00000537,-0.00000105,-0.00000045,0.00000016,-0.00000313,-0.
 00000041,0.00000045,0.00000167,-0.00000131,0.00000156,0.00011491,-0.00
 006375,0.00005002,0.06046974,-0.12333517,0.23140009,-0.00162950,0.0000
 7199,-0.00082236,0.00012006,-0.00000518,0.00031400,-0.01028901,-0.0319
 8646,0.01412787,-0.00009676,0.00004833,-0.00009842,0.00005990,-0.00003
 492,-0.00006285,0.00006505,0.00033124,-0.00017161,-0.00002513,-0.00004
 744,0.00004441,-0.06522455,-0.05853546,0.03071218,0.00001936,0.0000170
 3,-0.00004022,0.00000783,0.00005517,-0.00001178,-0.00001058,0.00002100
 ,-0.00002247,0.00288117,0.01422531,-0.00633669,0.00000361,-0.00000753,
 -0.00000510,-0.00001743,-0.00000885,-0.00000280,-0.00000159,-0.0000010
 5,-0.00000750,-0.00094626,-0.00039990,-0.00317167,0.00002241,0.0000597
 4,0.00012125,-0.00000244,-0.00014852,-0.00012004,-0.00019628,0.0002005
 0,0.00020897,0.00009445,0.00094062,-0.00105439,0.00009870,0.00012579,-
 0.00000521,0.00004364,0.00010893,-0.00004713,-0.00631637,0.00049613,0.
 00045623,0.00099915,0.00038466,-0.00031702,-0.00001333,0.00000627,0.00
 001536,0.00001811,0.00002739,-0.00006617,0.00010092,-0.00005633,0.0000
 4027,0.00006630,-0.00004552,0.00005618,-0.00000429,0.00000539,-0.00002
 230,0.00001169,0.00000135,0.00001690,0.00206688,0.00939769,-0.00525509
 ,0.00000170,0.00000348,0.00000490,-0.00000087,-0.00000101,0.00000132,0
 .00000155,0.00000096,0.00000041,-0.00000033,-0.00000052,0.00000100,-0.
 00000193,-0.00000037,-0.00000272,-0.00000357,-0.00002090,0.00000759,-0
 .00001466,-0.00000373,-0.00000509,0.00000228,0.00000013,0.00000492,0.0
 0001275,0.00000319,-0.00000870,-0.00000227,-0.00000820,0.00000895,-0.0
 0000022,0.00000089,0.00000078,-0.00002365,0.00000461,-0.00000415,-0.00
 000261,0.00000203,0.00000337,-0.00000009,0.00000080,0.00000107,0.00034
 514,-0.00034833,0.00042831,0.00071145,0.00040439,0.00051586,-0.0000839
 0,-0.00025319,0.00014466,0.00011618,0.00013092,-0.00018405,0.00019515,
 0.00072085,-0.00075568,0.00236969,-0.00009452,-0.00010352,0.00000204,-
 0.00000270,0.00000155,0.07447047,0.00107571,-0.00034219,0.00145245,-0.
 00006350,-0.00008071,-0.00015211,-0.00162566,-0.00162356,-0.00062442,-
 0.00014782,0.00001577,0.00009856,0.00005403,-0.00001882,-0.00003502,0.
 00045324,0.00028188,-0.00009322,0.00000680,-0.00002767,-0.00001370,-0.
 05916458,-0.24722503,0.09391369,0.00000946,0.00001026,-0.00000809,-0.0
 0005436,0.00008930,-0.00004200,-0.00001301,-0.00000345,-0.00001381,0.0
 0002415,-0.00106984,-0.00090361,0.00000165,-0.00000128,-0.00000257,-0.
 00000898,-0.00000937,-0.00000872,-0.00000338,-0.00000351,-0.00000302,0
 .00053897,0.00124141,0.00062586,0.00007295,0.00004451,0.00000108,0.000
 03960,-0.00020404,-0.00009806,-0.00008528,-0.00012195,0.00004315,0.001
 27979,0.00018087,0.00019785,-0.00003580,0.00004428,-0.00001142,-0.0000
 6398,-0.00000288,0.00000335,-0.00026590,0.00120639,0.00037268,-0.00032
 696,0.00029101,-0.00004223,0.00000110,0.00000042,0.00000604,0.00000295
 ,0.00000933,-0.00001215,0.00010429,-0.00004851,0.00005001,0.00006420,-
 0.00002954,0.00002654,-0.00000023,0.00000583,-0.00000644,0.00001573,-0
 .00000223,0.00002373,-0.00604222,-0.01834599,0.01038678,0.00000439,0.0
 0000602,-0.00000003,0.00000133,-0.00000233,-0.00000087,0.00000046,0.00
 000212,-0.00000153,0.00000137,-0.00000054,0.00000112,-0.00000016,-0.00
 000077,-0.00000022,0.00001000,-0.00000237,0.00000064,-0.00001210,-0.00
 000854,-0.00000439,0.00000047,0.00000343,0.00000361,0.00000605,0.00000
 794,-0.00000810,0.,-0.00000347,0.00000605,-0.00000176,-0.00000033,0.00
 000099,-0.00000938,-0.00000183,0.00000221,-0.00000347,0.00000181,0.000
 00186,0.00000107,0.00000206,0.00000088,0.00005887,0.00063233,0.0001846
 9,0.00028328,0.00023304,-0.00011684,-0.00000464,0.00028105,-0.00008557
 ,-0.00006050,-0.00005111,0.00002696,-0.00025238,-0.00018284,0.00025731
 ,-0.00008057,-0.00031443,0.00089701,0.00000085,0.00000041,0.00000004,0
 .06421389,0.26513769,-0.00100176,0.00085645,-0.00077560,-0.00013717,0.
 00003373,0.00010529,-0.00120406,0.00204800,-0.00260341,0.00007367,-0.0
 0019155,0.00014756,0.00004427,0.00009183,-0.00006190,-0.00021937,-0.00
 013734,-0.00005403,0.00004678,0.00002551,0.00000774,0.03195505,0.09328
 622,-0.08926636,-0.00001984,-0.00001706,-0.00001671,0.00005614,-0.0000
 2769,0.00002138,0.00001995,-0.00003650,0.00000752,0.00723262,0.0269766
 4,-0.01400235,-0.00000727,0.00001877,0.00000445,-0.00001453,-0.0000063
 1,-0.00000047,0.00001581,0.00000279,0.00000722,-0.00367364,-0.00143966
 ,-0.00464515,-0.00001365,0.00000938,0.00003168,0.00021375,0.00007005,-
 0.00003607,0.00011671,-0.00004054,-0.00005815,-0.00102415,0.00063946,-
 0.00048795,0.00002578,0.00000380,-0.00000259,0.00005898,0.00001221,0.0
 0000351,-0.00017999,-0.00015205,0.00063963,-0.00013611,0.00015039,0.00
 014797,-0.00000545,-0.00000376,-0.00000307,0.00001359,-0.00001671,0.00
 000378,-0.00001630,0.00000559,-0.00001256,-0.00003301,0.00002078,-0.00
 000493,-0.00000066,-0.00000289,-0.00000958,0.00002598,-0.00000612,0.00
 003688,-0.00543754,-0.01644237,0.00756928,0.00000320,0.00000328,0.0000
 0188,-0.00000337,-0.00000164,-0.00000235,-0.00000196,-0.00000124,-0.00
 000002,0.00000361,0.00000015,0.00000164,0.00000158,-0.00000020,0.00001
 180,-0.00000715,-0.00001751,0.00000654,0.00000054,0.00000016,-0.000000
 18,0.00000011,0.00000114,0.00000113,0.00000546,0.00000136,-0.00000119,
 0.00000349,-0.00000343,0.00000175,0.00000132,0.00000128,0.00000006,0.0
 0000852,0.00000065,0.00000097,0.00000400,-0.00000300,-0.00000522,-0.00
 000118,-0.00000373,-0.00000101,0.00073325,-0.00019223,0.00127446,0.000
 37099,-0.00031463,0.00150504,-0.00007908,0.00000396,0.00018063,0.00017
 092,-0.00014233,0.00011944,0.00022028,0.00164406,-0.00104005,0.0003252
 3,-0.00041226,0.00072282,-0.00000073,0.00000208,-0.00000171,-0.0285336
 2,-0.10629699,0.10053058\\0.00000153,-0.00000112,-0.00000101,-0.000000
 69,0.00000178,0.00000053,0.00000062,-0.00000038,-0.00000015,-0.0000008
 0,-0.00000161,0.00000086,-0.00000082,-0.00000183,0.00000055,0.00000239
 ,0.00000127,-0.00000197,-0.00000002,0.00000340,-0.00000007,-0.00000156
 ,-0.00000148,0.00000013,0.00000034,0.00000526,-0.00000053,0.00000328,-
 0.00000108,-0.00000296,-0.00000186,-0.00000303,0.00000157,-0.00000173,
 -0.00000131,0.00000016,-0.00000151,-0.00000370,0.00000150,0.00000391,-
 0.00000337,-0.00000223,0.00000058,0.00000687,-0.00000104,-0.00000305,-
 0.00000025,0.00000312,-0.00000225,-0.00000097,0.00000215,-0.00000185,-
 0.00000281,0.00000074,0.00000191,-0.00000041,-0.00000131,0.00000089,-0
 .00000202,-0.00000050,-0.00000189,0.00000191,0.00000131,-0.00000027,0.
 00000152,0.00000013,-0.00000269,0.00000083,0.00000042,0.00000002,0.000
 00184,0.00000041,0.00000100,0.00000309,-0.00000071,-0.00000101,0.00000
 382,0.00000017,0.00000228,0.00000205,-0.00000219,0.00000153,-0.0000001
 1,-0.00000102,0.00000042,-0.00000267,-0.00000008,-0.00000076,-0.000000
 85,0.00000052,-0.00000199,-0.00000261,0.00000324,-0.00000298,-0.000002
 51,0.00000257,-0.00000193,-0.00000438,0.00000184,-0.00000031,-0.000004
 32,0.00000066,-0.00000142,-0.00000247,0.00000128,-0.00000220,-0.000004
 61,0.00000210,0.00000443,-0.00000023,-0.00000363,0.00000423,-0.0000007
 1,-0.00000291,0.00000337,-0.00000296,-0.00000233,0.00000341,-0.0000030
 4,-0.00000243,0.00000503,-0.00000342,-0.00000337,-0.00000106,0.0000053
 8,0.00000033,0.00000057,0.00000480,-0.00000100,0.00000051,0.00000806,-
 0.00000114,0.00000157,0.00000669,-0.00000180,0.00000020,-0.00000055,0.
 00000030,-0.00000092,-0.00000282,0.00000062,-0.00000341,-0.00000121,0.
 00000246,-0.00000239,0.00000141,0.00000236,-0.00000262,-0.00000020,0.0
 0000201,-0.00000006,0.00000002,0.00000006,-0.00000034,0.00000724,-0.00
 000050,0.00000036,-0.00000223,0.00000077\\\@
 The archive entry for this job was punched.


 UNDER MOST GREENE GRASSE LY MOST GREATE SNAKES.
 -- PROVERBS AND REASONS OF THE YEAR 1585
           AS REPRINTED IN PAISLEY MAGAZINE 1828.
 Job cpu time:       1 days  1 hours 46 minutes 16.9 seconds.
 Elapsed time:       0 days  0 hours 16 minutes 20.2 seconds.
 File lengths (MBytes):  RWF=   1844 Int=      0 D2E=      0 Chk=    119 Scr=      1
 Normal termination of Gaussian 16 at Mon Dec 16 22:17:46 2024.
503576.73user 1107.93system 1:30:17elapsed 9315%CPU (0avgtext+0avgdata 62084108maxresident)k
1416inputs+3274864outputs (25363major+26879429minor)pagefaults 0swaps
