 Entering Gaussian System, Link 0=g16
 Initial command:
 /common/software/install/migrated/gaussian/g16.c01.avx2/g16/l1.exe "/tmp/quach062/27944080/Gau-672684.inp" -scrdir="/tmp/quach062/27944080/"
 Entering Link 1 = /common/software/install/migrated/gaussian/g16.c01.avx2/g16/l1.exe PID=    672685.
  
 Copyright (c) 1988-2019, Gaussian, Inc.  All Rights Reserved.
  
 This is part of the Gaussian(R) 16 program.  It is based on
 the Gaussian(R) 09 system (copyright 2009, Gaussian, Inc.),
 the Gaussian(R) 03 system (copyright 2003, Gaussian, Inc.),
 the Gaussian(R) 98 system (copyright 1998, Gaussian, Inc.),
 the Gaussian(R) 94 system (copyright 1995, Gaussian, Inc.),
 the Gaussian 92(TM) system (copyright 1992, Gaussian, Inc.),
 the Gaussian 90(TM) system (copyright 1990, Gaussian, Inc.),
 the Gaussian 88(TM) system (copyright 1988, Gaussian, Inc.),
 the Gaussian 86(TM) system (copyright 1986, Carnegie Mellon
 University), and the Gaussian 82(TM) system (copyright 1983,
 Carnegie Mellon University). Gaussian is a federally registered
 trademark of Gaussian, Inc.
  
 This software contains proprietary and confidential information,
 including trade secrets, belonging to Gaussian, Inc.
  
 This software is provided under written license and may be
 used, copied, transmitted, or stored only in accord with that
 written license.
  
 The following legend is applicable only to US Government
 contracts under FAR:
  
                    RESTRICTED RIGHTS LEGEND
  
 Use, reproduction and disclosure by the US Government is
 subject to restrictions as set forth in subparagraphs (a)
 and (c) of the Commercial Computer Software - Restricted
 Rights clause in FAR 52.227-19.
  
 Gaussian, Inc.
 340 Quinnipiac St., Bldg. 40, Wallingford CT 06492
  
  
 ---------------------------------------------------------------
 Warning -- This program may not be used in any manner that
 competes with the business of Gaussian, Inc. or will provide
 assistance to any competitor of Gaussian, Inc.  The licensee
 of this program is prohibited from giving any competitor of
 Gaussian, Inc. access to this program.  By using this program,
 the user acknowledges that Gaussian, Inc. is engaged in the
 business of creating and licensing software in the field of
 computational chemistry and represents and warrants to the
 licensee that it is not a competitor of Gaussian, Inc. and that
 it will not use this program in any manner prohibited above.
 ---------------------------------------------------------------
  

 Cite this work as:
 Gaussian 16, Revision C.01,
 M. J. Frisch, G. W. Trucks, H. B. Schlegel, G. E. Scuseria, 
 M. A. Robb, J. R. Cheeseman, G. Scalmani, V. Barone, 
 G. A. Petersson, H. Nakatsuji, X. Li, M. Caricato, A. V. Marenich, 
 J. Bloino, B. G. Janesko, R. Gomperts, B. Mennucci, H. P. Hratchian, 
 J. V. Ortiz, A. F. Izmaylov, J. L. Sonnenberg, D. Williams-Young, 
 F. Ding, F. Lipparini, F. Egidi, J. Goings, B. Peng, A. Petrone, 
 T. Henderson, D. Ranasinghe, V. G. Zakrzewski, J. Gao, N. Rega, 
 G. Zheng, W. Liang, M. Hada, M. Ehara, K. Toyota, R. Fukuda, 
 J. Hasegawa, M. Ishida, T. Nakajima, Y. Honda, O. Kitao, H. Nakai, 
 T. Vreven, K. Throssell, J. A. Montgomery, Jr., J. E. Peralta, 
 F. Ogliaro, M. J. Bearpark, J. J. Heyd, E. N. Brothers, K. N. Kudin, 
 V. N. Staroverov, T. A. Keith, R. Kobayashi, J. Normand, 
 K. Raghavachari, A. P. Rendell, J. C. Burant, S. S. Iyengar, 
 J. Tomasi, M. Cossi, J. M. Millam, M. Klene, C. Adamo, R. Cammi, 
 J. W. Ochterski, R. L. Martin, K. Morokuma, O. Farkas, 
 J. B. Foresman, and D. J. Fox, Gaussian, Inc., Wallingford CT, 2019.
 
 ******************************************
 Gaussian 16:  ES64L-G16RevC.01  3-Jul-2019
                10-Dec-2024 
 ******************************************
 %chk=3_p1.chk
 %lindaworkers=in-cn0088
 %nprocshared=128
 Will use up to  128 processors via shared memory.
 %mem=59800MB
 SetLPE:  input flags=" -workerwait 900 -opt "Tsnet.Node.lindarsharg: ssh " "
 SetLPE:    new flags=" -workerwait 900 -opt "Tsnet.Node.lindarsharg: ssh " -opt 'Tsnet.Node.lindarsharg: ssh'  -nodelist 'in-cn0088' -env GAUSS_MDEF=7838105600 -env GAUSS_EXEDIR="/common/software/install/migrated/gaussian/g16.c01.avx2/g16/bsd:/common/software/install/migrated/gaussian/g16.c01.avx2/g16/local:/common/software/install/migrated/gaussian/g16.c01.avx2/g16/extras:/common/software/install/migrated/gaussian/g16.c01.avx2/g16""
 Will use up to    1 processors via Linda.
 ----------------------------------------------------------------------
 # opt=calcfc # freq # m06l/6-311++g(d,p)/auto # nosymm integral=grid=u
 ltrafine # scf=(tight,intrep,xqc) # SCRF=(SMD,Solvent=n,n-DiMethylForm
 amide)
 ----------------------------------------------------------------------
 1/10=4,18=20,19=15,26=6,38=1/1,3;
 2/9=110,12=2,15=1,17=6,18=5,40=1/2;
 3/5=4,6=6,7=1111,11=2,25=1,30=1,70=32201,71=2,72=148,74=-53,75=-5,82=28,140=1/1,2,3;
 4//1;
 5/5=2,8=3,13=1,17=20,32=2,38=5,53=148/2,8;
 8/6=4,10=90,11=11/1;
 11/6=1,8=1,9=11,15=111,16=1,31=1/1,2,10;
 10/6=1,13=1,31=1/2;
 6/7=2,8=2,9=2,10=2,28=1/1;
 7/10=1,25=1,30=1/1,2,3,16;
 1/10=4,18=20,19=15,26=6/3(2);
 2/9=110,15=1/2;
 99//99;
 2/9=110,15=1/2;
 3/5=4,6=6,7=1111,11=2,25=1,30=1,70=32205,71=1,72=148,74=-53,75=-5,82=28/1,2,3;
 4/5=5,16=3,69=1/1;
 5/5=2,8=3,13=1,17=20,32=2,38=5,53=148/2,8;
 7/30=1/1,2,3,16;
 1/18=20,19=15,26=6/3(-5);
 2/9=110,15=1/2;
 6/7=2,8=2,9=2,10=2,19=2,28=1/1;
 99/9=1/99;
 ----------------
 3D Atomistic (5)
 ----------------
 Symbolic Z-matrix:
 Charge =  1 Multiplicity = 1
 C                     10.13148   11.11395   19.84184 
 C                     7.82491   10.32445   20.24806 
 C                     9.44377   10.29086   22.14098 
 C                     9.67752   8.72099   20.18807 
 C                     11.00711   8.20828   20.67263 
 C                     9.76962   12.56731   20.04631 
 C                     6.82493   9.57941   21.10053 
 C                     10.80889   10.71277   22.63559 
 H                     9.64206   8.75185   19.09664 
 H                     8.87672   8.06658   20.53492 
 H                     11.16867   10.91579   20.11502 
 H                     10.01535   10.81837   18.79661 
 H                     7.76691   10.03918   19.19328 
 H                     7.63129   11.39329   20.32297 
 H                     9.13603   9.33593   22.57703 
 H                     8.69745   11.03359   22.4369 
 H                     5.84619   9.69186   20.62766 
 H                     6.74616   10.00182   22.10438 
 H                     7.01765   8.50758   21.18023 
 H                     8.8638    12.84794   19.50718 
 H                     10.58714   13.18137   19.65804 
 H                     9.62799   12.82697   21.098 
 H                     11.15954   7.24178   20.18947 
 H                     11.03427   8.03434   21.75065 
 H                     11.84816   8.84601   20.38739 
 H                     11.55024   10.04466   22.24968 
 H                     11.01724   11.70786   22.30202 
 N                     9.28876   10.12262   20.63115 
 H                     10.82522   10.68434   23.70508 
 

 GradGradGradGradGradGradGradGradGradGradGradGradGradGradGradGradGradGrad
 Berny optimization.
 Initialization pass.
                           ----------------------------
                           !    Initial Parameters    !
                           ! (Angstroms and Degrees)  !
 --------------------------                            --------------------------
 ! Name  Definition              Value          Derivative Info.                !
 --------------------------------------------------------------------------------
 ! R1    R(1,6)                  1.5116         calculate D2E/DX2 analytically  !
 ! R2    R(1,11)                 1.0907         calculate D2E/DX2 analytically  !
 ! R3    R(1,12)                 1.0924         calculate D2E/DX2 analytically  !
 ! R4    R(1,28)                 1.5218         calculate D2E/DX2 analytically  !
 ! R5    R(2,7)                  1.5106         calculate D2E/DX2 analytically  !
 ! R6    R(2,13)                 1.0942         calculate D2E/DX2 analytically  !
 ! R7    R(2,14)                 1.0888         calculate D2E/DX2 analytically  !
 ! R8    R(2,28)                 1.5266         calculate D2E/DX2 analytically  !
 ! R9    R(3,8)                  1.512          calculate D2E/DX2 analytically  !
 ! R10   R(3,15)                 1.0939         calculate D2E/DX2 analytically  !
 ! R11   R(3,16)                 1.0937         calculate D2E/DX2 analytically  !
 ! R12   R(3,28)                 1.5271         calculate D2E/DX2 analytically  !
 ! R13   R(4,5)                  1.5052         calculate D2E/DX2 analytically  !
 ! R14   R(4,9)                  1.0924         calculate D2E/DX2 analytically  !
 ! R15   R(4,10)                 1.0908         calculate D2E/DX2 analytically  !
 ! R16   R(4,28)                 1.5205         calculate D2E/DX2 analytically  !
 ! R17   R(5,23)                 1.0912         calculate D2E/DX2 analytically  !
 ! R18   R(5,24)                 1.0923         calculate D2E/DX2 analytically  !
 ! R19   R(5,25)                 1.0934         calculate D2E/DX2 analytically  !
 ! R20   R(6,20)                 1.0908         calculate D2E/DX2 analytically  !
 ! R21   R(6,21)                 1.0937         calculate D2E/DX2 analytically  !
 ! R22   R(6,22)                 1.0925         calculate D2E/DX2 analytically  !
 ! R23   R(7,17)                 1.0928         calculate D2E/DX2 analytically  !
 ! R24   R(7,18)                 1.0919         calculate D2E/DX2 analytically  !
 ! R25   R(7,19)                 1.0919         calculate D2E/DX2 analytically  !
 ! R26   R(8,26)                 1.07           calculate D2E/DX2 analytically  !
 ! R27   R(8,27)                 1.07           calculate D2E/DX2 analytically  !
 ! R28   R(8,29)                 1.07           calculate D2E/DX2 analytically  !
 ! A1    A(6,1,11)             111.6188         calculate D2E/DX2 analytically  !
 ! A2    A(6,1,12)             111.3535         calculate D2E/DX2 analytically  !
 ! A3    A(6,1,28)             115.0613         calculate D2E/DX2 analytically  !
 ! A4    A(11,1,12)            106.9523         calculate D2E/DX2 analytically  !
 ! A5    A(11,1,28)            106.1606         calculate D2E/DX2 analytically  !
 ! A6    A(12,1,28)            105.138          calculate D2E/DX2 analytically  !
 ! A7    A(7,2,13)             112.3539         calculate D2E/DX2 analytically  !
 ! A8    A(7,2,14)             109.1252         calculate D2E/DX2 analytically  !
 ! A9    A(7,2,28)             115.3385         calculate D2E/DX2 analytically  !
 ! A10   A(13,2,14)            108.2297         calculate D2E/DX2 analytically  !
 ! A11   A(13,2,28)            104.9675         calculate D2E/DX2 analytically  !
 ! A12   A(14,2,28)            106.4419         calculate D2E/DX2 analytically  !
 ! A13   A(8,3,15)             111.5405         calculate D2E/DX2 analytically  !
 ! A14   A(8,3,16)             109.7598         calculate D2E/DX2 analytically  !
 ! A15   A(8,3,28)             116.4756         calculate D2E/DX2 analytically  !
 ! A16   A(15,3,16)            107.037          calculate D2E/DX2 analytically  !
 ! A17   A(15,3,28)            105.6271         calculate D2E/DX2 analytically  !
 ! A18   A(16,3,28)            105.8467         calculate D2E/DX2 analytically  !
 ! A19   A(5,4,9)              111.0963         calculate D2E/DX2 analytically  !
 ! A20   A(5,4,10)             109.9858         calculate D2E/DX2 analytically  !
 ! A21   A(5,4,28)             116.4899         calculate D2E/DX2 analytically  !
 ! A22   A(9,4,10)             108.1073         calculate D2E/DX2 analytically  !
 ! A23   A(9,4,28)             104.8798         calculate D2E/DX2 analytically  !
 ! A24   A(10,4,28)            105.8223         calculate D2E/DX2 analytically  !
 ! A25   A(4,5,23)             106.4125         calculate D2E/DX2 analytically  !
 ! A26   A(4,5,24)             113.1998         calculate D2E/DX2 analytically  !
 ! A27   A(4,5,25)             113.3803         calculate D2E/DX2 analytically  !
 ! A28   A(23,5,24)            107.0056         calculate D2E/DX2 analytically  !
 ! A29   A(23,5,25)            107.0759         calculate D2E/DX2 analytically  !
 ! A30   A(24,5,25)            109.3437         calculate D2E/DX2 analytically  !
 ! A31   A(1,6,20)             112.2884         calculate D2E/DX2 analytically  !
 ! A32   A(1,6,21)             108.2315         calculate D2E/DX2 analytically  !
 ! A33   A(1,6,22)             112.9395         calculate D2E/DX2 analytically  !
 ! A34   A(20,6,21)            107.5063         calculate D2E/DX2 analytically  !
 ! A35   A(20,6,22)            107.8771         calculate D2E/DX2 analytically  !
 ! A36   A(21,6,22)            107.7715         calculate D2E/DX2 analytically  !
 ! A37   A(2,7,17)             107.3342         calculate D2E/DX2 analytically  !
 ! A38   A(2,7,18)             112.0716         calculate D2E/DX2 analytically  !
 ! A39   A(2,7,19)             114.1105         calculate D2E/DX2 analytically  !
 ! A40   A(17,7,18)            107.0612         calculate D2E/DX2 analytically  !
 ! A41   A(17,7,19)            106.8982         calculate D2E/DX2 analytically  !
 ! A42   A(18,7,19)            108.9874         calculate D2E/DX2 analytically  !
 ! A43   A(3,8,26)             109.4712         calculate D2E/DX2 analytically  !
 ! A44   A(3,8,27)             109.4712         calculate D2E/DX2 analytically  !
 ! A45   A(3,8,29)             109.4712         calculate D2E/DX2 analytically  !
 ! A46   A(26,8,27)            109.4712         calculate D2E/DX2 analytically  !
 ! A47   A(26,8,29)            109.4712         calculate D2E/DX2 analytically  !
 ! A48   A(27,8,29)            109.4712         calculate D2E/DX2 analytically  !
 ! A49   A(1,28,2)             108.3441         calculate D2E/DX2 analytically  !
 ! A50   A(1,28,3)             112.6335         calculate D2E/DX2 analytically  !
 ! A51   A(1,28,4)             107.9235         calculate D2E/DX2 analytically  !
 ! A52   A(2,28,3)             109.3232         calculate D2E/DX2 analytically  !
 ! A53   A(2,28,4)             107.0929         calculate D2E/DX2 analytically  !
 ! A54   A(3,28,4)             111.3287         calculate D2E/DX2 analytically  !
 ! D1    D(11,1,6,20)          162.5105         calculate D2E/DX2 analytically  !
 ! D2    D(11,1,6,21)           44.0013         calculate D2E/DX2 analytically  !
 ! D3    D(11,1,6,22)          -75.2315         calculate D2E/DX2 analytically  !
 ! D4    D(12,1,6,20)           43.0584         calculate D2E/DX2 analytically  !
 ! D5    D(12,1,6,21)          -75.4508         calculate D2E/DX2 analytically  !
 ! D6    D(12,1,6,22)          165.3164         calculate D2E/DX2 analytically  !
 ! D7    D(28,1,6,20)          -76.4369         calculate D2E/DX2 analytically  !
 ! D8    D(28,1,6,21)          165.0539         calculate D2E/DX2 analytically  !
 ! D9    D(28,1,6,22)           45.8211         calculate D2E/DX2 analytically  !
 ! D10   D(6,1,28,2)            57.9687         calculate D2E/DX2 analytically  !
 ! D11   D(6,1,28,3)           -63.0921         calculate D2E/DX2 analytically  !
 ! D12   D(6,1,28,4)           173.6076         calculate D2E/DX2 analytically  !
 ! D13   D(11,1,28,2)         -178.0475         calculate D2E/DX2 analytically  !
 ! D14   D(11,1,28,3)           60.8917         calculate D2E/DX2 analytically  !
 ! D15   D(11,1,28,4)          -62.4086         calculate D2E/DX2 analytically  !
 ! D16   D(12,1,28,2)          -64.9138         calculate D2E/DX2 analytically  !
 ! D17   D(12,1,28,3)          174.0254         calculate D2E/DX2 analytically  !
 ! D18   D(12,1,28,4)           50.7251         calculate D2E/DX2 analytically  !
 ! D19   D(13,2,7,17)          -51.3752         calculate D2E/DX2 analytically  !
 ! D20   D(13,2,7,18)         -168.6473         calculate D2E/DX2 analytically  !
 ! D21   D(13,2,7,19)           66.8729         calculate D2E/DX2 analytically  !
 ! D22   D(14,2,7,17)           68.6651         calculate D2E/DX2 analytically  !
 ! D23   D(14,2,7,18)          -48.607          calculate D2E/DX2 analytically  !
 ! D24   D(14,2,7,19)         -173.0868         calculate D2E/DX2 analytically  !
 ! D25   D(28,2,7,17)         -171.6209         calculate D2E/DX2 analytically  !
 ! D26   D(28,2,7,18)           71.1071         calculate D2E/DX2 analytically  !
 ! D27   D(28,2,7,19)          -53.3727         calculate D2E/DX2 analytically  !
 ! D28   D(7,2,28,1)          -170.4175         calculate D2E/DX2 analytically  !
 ! D29   D(7,2,28,3)           -47.3308         calculate D2E/DX2 analytically  !
 ! D30   D(7,2,28,4)            73.4042         calculate D2E/DX2 analytically  !
 ! D31   D(13,2,28,1)           65.3758         calculate D2E/DX2 analytically  !
 ! D32   D(13,2,28,3)         -171.5375         calculate D2E/DX2 analytically  !
 ! D33   D(13,2,28,4)          -50.8025         calculate D2E/DX2 analytically  !
 ! D34   D(14,2,28,1)          -49.239          calculate D2E/DX2 analytically  !
 ! D35   D(14,2,28,3)           73.8476         calculate D2E/DX2 analytically  !
 ! D36   D(14,2,28,4)         -165.4173         calculate D2E/DX2 analytically  !
 ! D37   D(15,3,8,26)           67.9822         calculate D2E/DX2 analytically  !
 ! D38   D(15,3,8,27)         -172.0178         calculate D2E/DX2 analytically  !
 ! D39   D(15,3,8,29)          -52.0178         calculate D2E/DX2 analytically  !
 ! D40   D(16,3,8,26)         -173.5611         calculate D2E/DX2 analytically  !
 ! D41   D(16,3,8,27)          -53.5611         calculate D2E/DX2 analytically  !
 ! D42   D(16,3,8,29)           66.4389         calculate D2E/DX2 analytically  !
 ! D43   D(28,3,8,26)          -53.3586         calculate D2E/DX2 analytically  !
 ! D44   D(28,3,8,27)           66.6414         calculate D2E/DX2 analytically  !
 ! D45   D(28,3,8,29)         -173.3586         calculate D2E/DX2 analytically  !
 ! D46   D(8,3,28,1)           -34.1627         calculate D2E/DX2 analytically  !
 ! D47   D(8,3,28,2)          -154.6629         calculate D2E/DX2 analytically  !
 ! D48   D(8,3,28,4)            87.2194         calculate D2E/DX2 analytically  !
 ! D49   D(15,3,28,1)         -158.5813         calculate D2E/DX2 analytically  !
 ! D50   D(15,3,28,2)           80.9186         calculate D2E/DX2 analytically  !
 ! D51   D(15,3,28,4)          -37.1991         calculate D2E/DX2 analytically  !
 ! D52   D(16,3,28,1)           88.1121         calculate D2E/DX2 analytically  !
 ! D53   D(16,3,28,2)          -32.3881         calculate D2E/DX2 analytically  !
 ! D54   D(16,3,28,4)         -150.5058         calculate D2E/DX2 analytically  !
 ! D55   D(9,4,5,23)           -54.9081         calculate D2E/DX2 analytically  !
 ! D56   D(9,4,5,24)          -172.1634         calculate D2E/DX2 analytically  !
 ! D57   D(9,4,5,25)            62.5331         calculate D2E/DX2 analytically  !
 ! D58   D(10,4,5,23)           64.7472         calculate D2E/DX2 analytically  !
 ! D59   D(10,4,5,24)          -52.5081         calculate D2E/DX2 analytically  !
 ! D60   D(10,4,5,25)         -177.8116         calculate D2E/DX2 analytically  !
 ! D61   D(28,4,5,23)         -174.8943         calculate D2E/DX2 analytically  !
 ! D62   D(28,4,5,24)           67.8504         calculate D2E/DX2 analytically  !
 ! D63   D(28,4,5,25)          -57.453          calculate D2E/DX2 analytically  !
 ! D64   D(5,4,28,1)            73.8015         calculate D2E/DX2 analytically  !
 ! D65   D(5,4,28,2)          -169.7417         calculate D2E/DX2 analytically  !
 ! D66   D(5,4,28,3)           -50.2886         calculate D2E/DX2 analytically  !
 ! D67   D(9,4,28,1)           -49.4645         calculate D2E/DX2 analytically  !
 ! D68   D(9,4,28,2)            66.9922         calculate D2E/DX2 analytically  !
 ! D69   D(9,4,28,3)          -173.5547         calculate D2E/DX2 analytically  !
 ! D70   D(10,4,28,1)         -163.6407         calculate D2E/DX2 analytically  !
 ! D71   D(10,4,28,2)          -47.1839         calculate D2E/DX2 analytically  !
 ! D72   D(10,4,28,3)           72.2692         calculate D2E/DX2 analytically  !
 --------------------------------------------------------------------------------
 Trust Radius=3.00D-01 FncErr=5.00D-06 GrdErr=5.00D-06 EigMax=2.50D+02 EigMin=1.00D-04
 Number of steps in this run=    164 maximum allowed number of steps=    174.
 GradGradGradGradGradGradGradGradGradGradGradGradGradGradGradGradGradGrad

                          Input orientation:                          
 ---------------------------------------------------------------------
 Center     Atomic      Atomic             Coordinates (Angstroms)
 Number     Number       Type             X           Y           Z
 ---------------------------------------------------------------------
      1          6           0       10.131476   11.113946   19.841837
      2          6           0        7.824906   10.324453   20.248056
      3          6           0        9.443766   10.290860   22.140976
      4          6           0        9.677523    8.720988   20.188069
      5          6           0       11.007112    8.208276   20.672634
      6          6           0        9.769623   12.567314   20.046307
      7          6           0        6.824926    9.579406   21.100534
      8          6           0       10.808886   10.712767   22.635587
      9          1           0        9.642061    8.751848   19.096638
     10          1           0        8.876715    8.066582   20.534917
     11          1           0       11.168669   10.915786   20.115018
     12          1           0       10.015347   10.818370   18.796614
     13          1           0        7.766905   10.039177   19.193284
     14          1           0        7.631291   11.393288   20.322968
     15          1           0        9.136033    9.335933   22.577026
     16          1           0        8.697450   11.033591   22.436896
     17          1           0        5.846185    9.691860   20.627659
     18          1           0        6.746157   10.001823   22.104381
     19          1           0        7.017648    8.507582   21.180230
     20          1           0        8.863801   12.847941   19.507178
     21          1           0       10.587141   13.181366   19.658035
     22          1           0        9.627985   12.826969   21.098001
     23          1           0       11.159544    7.241783   20.189472
     24          1           0       11.034273    8.034336   21.750650
     25          1           0       11.848161    8.846011   20.387388
     26          1           0       11.550242   10.044663   22.249675
     27          1           0       11.017244   11.707865   22.302019
     28          7           0        9.288758   10.122618   20.631155
     29          1           0       10.825217   10.684342   23.705085
 ---------------------------------------------------------------------
                    Distance matrix (angstroms):
                    1          2          3          4          5
     1  C    0.000000
     2  C    2.471554   0.000000
     3  C    2.537017   2.490980   0.000000
     4  C    2.460122   2.450895   2.516543   0.000000
     5  C    3.146408   3.845115   2.989521   1.505152   0.000000
     6  C    1.511630   2.975408   3.110637   3.850039   4.574372
     7  C    3.856476   1.510554   2.906374   3.115571   4.421965
     8  C    2.902562   3.841254   1.512018   3.352240   3.188252
     9  H    2.524749   2.664752   3.416998   1.092443   2.154669
    10  H    3.367672   2.507304   2.801497   1.090800   2.139541
    11  H    1.090717   3.398253   2.733190   2.654429   2.769052
    12  H    1.092402   2.673700   3.433617   2.539544   3.363873
    13  H    2.677115   1.094208   3.400602   2.525407   4.004949
    14  H    2.561336   1.088810   2.793844   3.368449   4.654324
    15  H    3.410791   2.849619   1.093949   2.525566   2.898147
    16  H    2.966011   2.460738   1.093712   3.371335   4.053340
    17  H    4.582965   2.111779   3.948610   3.976806   5.370122
    18  H    4.220937   2.171113   2.713296   3.729034   4.839674
    19  H    4.275553   2.195822   3.160564   2.846904   4.032749
    20  H    2.173876   2.827754   3.716438   4.261161   5.242000
    21  H    2.125003   4.017464   3.978357   4.582937   5.092878
    22  H    2.183094   3.199388   2.748378   4.205890   4.838931
    23  H    4.021370   4.541596   4.006137   2.093904   1.091233
    24  H    3.733980   4.219296   2.788184   2.180349   1.092296
    25  H    2.896232   4.288564   3.308138   2.183353   1.093359
    26  H    2.992315   4.238265   2.123599   3.083734   2.480800
    27  H    2.681384   4.040249   2.123599   3.896802   3.860326
    28  N    1.521817   1.526553   1.527053   1.520536   2.572774
    29  H    3.948483   4.591561   2.123599   4.188241   3.919151
                    6          7          8          9         10
     6  C    0.000000
     7  C    4.325532   0.000000
     8  C    3.350191   4.417333   0.000000
     9  H    3.933945   3.554814   4.210801   0.000000
    10  H    4.614392   2.611206   3.892094   1.767481   0.000000
    11  H    2.165547   4.650296   2.554198   2.837298   3.680670
    12  H    2.163543   4.125756   3.921552   2.121290   3.448263
    13  H    3.336166   2.176308   4.642932   2.276569   2.631119
    14  H    2.455065   2.131901   3.988537   3.538967   3.558508
    15  H    4.153047   2.753275   2.167381   3.565154   2.418410
    16  H    3.035915   2.721555   2.144894   4.154030   3.528853
    17  H    4.898936   1.092790   5.449993   4.199562   3.440093
    18  H    4.467523   1.091948   4.158532   4.358350   3.278361
    19  H    5.033942   1.091925   4.621081   3.359846   2.016690
    20  H    1.090837   4.168827   4.257848   4.189536   4.890584
    21  H    1.093687   5.404552   3.874141   4.563877   5.464018
    22  H    1.092494   4.289966   2.868545   4.540073   4.852088
    23  H    5.505784   5.008336   4.260771   2.403609   2.451721
    24  H    5.005199   4.530838   2.829824   3.081697   2.476712
    25  H    4.276067   5.126337   3.101495   2.557690   3.075511
    26  H    3.793311   4.885243   1.070000   3.905659   3.741784
    27  H    2.717250   4.852776   1.070000   4.572049   4.578586
    28  N    2.559261   2.566294   2.583953   2.087720   2.099125
    29  H    4.248119   4.899683   1.070000   5.135384   4.549647
                   11         12         13         14         15
    11  H    0.000000
    12  H    1.754375   0.000000
    13  H    3.631809   2.412464   0.000000
    14  H    3.575513   2.888600   1.768670   0.000000
    15  H    3.562166   4.154796   3.717361   3.402607   0.000000
    16  H    3.392922   3.877477   3.517924   2.394738   1.758987
    17  H    5.485402   4.690806   2.422236   2.484813   3.840549
    18  H    4.934725   4.721830   3.085094   2.427564   2.525532
    19  H    4.915801   4.472982   2.618229   3.072256   2.669225
    20  H    3.068405   2.439286   3.031644   2.073791   4.672502
    21  H    2.383246   2.579291   4.247714   3.518012   5.041188
    22  H    2.644349   3.079107   3.855302   2.577383   3.823201
    23  H    3.674769   4.005149   4.508637   5.449898   3.765697
    24  H    3.316038   4.185138   4.608167   4.990102   2.445479
    25  H    2.195419   3.127294   4.416580   4.926943   3.519968
    26  H    2.336925   3.857222   4.863661   4.570467   2.537294
    27  H    2.330942   3.752714   4.797234   3.934499   3.039843
    28  N    2.104656   2.092258   2.095345   2.111108   2.104427
    29  H    3.613877   4.976639   5.488703   4.705580   2.438045
                   16         17         18         19         20
    16  H    0.000000
    17  H    3.633634   0.000000
    18  H    2.232186   1.756911   0.000000
    19  H    3.283545   1.755043   1.777785   0.000000
    20  H    3.450041   4.508030   4.396620   5.004608   0.000000
    21  H    3.988225   5.966028   5.554031   6.074752   1.761769
    22  H    2.423786   4.934789   4.159229   5.047546   1.764974
    23  H    5.048825   5.867424   5.546412   4.442876   6.096308
    24  H    3.863574   5.561003   4.731181   4.084436   5.737152
    25  H    4.348904   6.066045   5.505852   4.906831   5.069183
    26  H    3.025137   5.940680   4.806473   4.904156   4.753591
    27  H    2.419562   5.797207   4.603458   5.243757   3.707860
    28  N    2.107182   3.469420   2.941055   2.840381   2.978472
    29  H    2.501534   5.936862   4.434728   5.060707   5.113779
                   21         22         23         24         25
    21  H    0.000000
    22  H    1.766092   0.000000
    23  H    5.990719   5.862201   0.000000
    24  H    5.574126   5.037155   1.755309   0.000000
    25  H    4.573558   4.613261   1.756961   1.783175   0.000000
    26  H    4.181276   3.572486   3.500460   2.134635   2.234645
    27  H    3.057261   2.152230   4.942569   3.714715   3.542095
    28  N    3.462470   2.765237   3.463255   2.942960   2.870486
    29  H    4.761347   3.580657   4.931787   3.299401   3.928484
                   26         27         28         29
    26  H    0.000000
    27  H    1.747303   0.000000
    28  N    2.782085   2.879663   0.000000
    29  H    1.747303   1.747303   3.482138   0.000000
 Symmetry turned off by external request.
 Stoichiometry    C8H20N(1+)
 Framework group  C1[X(C8H20N)]
 Deg. of freedom    81
 Full point group                 C1      NOp   1
 Rotational constants (GHZ):           1.5087508           1.4196683           1.1207199
 Standard basis: 6-311++G(d,p) (5D, 7F)
   338 basis functions,   504 primitive gaussians,   347 cartesian basis functions
    37 alpha electrons       37 beta electrons
       nuclear repulsion energy       542.0055069578 Hartrees.
 NAtoms=   29 NActive=   29 NUniq=   29 SFac= 1.00D+00 NAtFMM=   60 NAOKFM=F Big=F
 Integral buffers will be    131072 words long.
 Raffenetti 2 integral format.
 Two-electron integral symmetry is turned off.
 Standard density basis: Auto (5D, 7F)
  1572 Density fitting functions
 Force inversion solution in PCM.
 ------------------------------------------------------------------------------
 Polarizable Continuum Model (PCM)
 =================================
 Model                : PCM.
 Atomic radii         : SMD-Coulomb.
 Polarization charges : Total charges.
 Charge compensation  : None.
 Solution method      : Matrix inversion.
 Cavity type          : VdW (van der Waals Surface) (Alpha=1.000).
 Cavity algorithm     : GePol (No added spheres)
                        Default sphere list used, NSphG=   29.
                        Lebedev-Laikov grids with approx.  5.0 points / Ang**2.
                        Smoothing algorithm: York/Karplus (Gamma=1.0000).
                        Polarization charges: spherical gaussians, with
                                              point-specific exponents (IZeta= 3).
                        Self-potential: point-specific (ISelfS= 7).
                        Self-field    : sphere-specific E.n sum rule (ISelfD= 2).
 1st derivatives      : Analytical E(r).r(x)/FMM algorithm (CHGder, D1EAlg=3).
                        Cavity 1st derivative terms included.
 2nd derivatives      : Analytical E(r).r(xy)/FMM algorithm (CHGder, D2EAlg=3).
                        Cavity 2nd derivative terms included.
 Solvent              : n,n-DiMethylFormamide, Eps=  37.219000 Eps(inf)=   2.046330
 ------------------------------------------------------------------------------
 ------------------------------------------------------------------------------
 Atomic radii for non-electrostatic terms: SMD-CDS.
 ------------------------------------------------------------------------------
 Nuclear repulsion after PCM non-electrostatic terms =      542.0042077538 Hartrees.
 One-electron integrals computed using PRISM.
 NBasis=   338 RedAO= T EigKep=  1.33D-05  NBF=   338
 NBsUse=   338 1.00D-06 EigRej= -1.00D+00 NBFU=   338
 NBasis=      338 NBas6D=      347 NTT=       57291   NTT6D=    60378
 NDBShl=      266 NDBF=       1572 NDBF6D=     1796  NNucDB=        0
 IDenFi=        2 ISolve=        0 FullAP=F BlkAPC=T NucTyp=        0
 TolInv= 1.00D-06 TolIt=  1.00D-10 IR12=0.
 FoFCou: FMM=F IPFlag=           0 FMFlag=           0 FMFlg1=           0
         NFxFlg=           0 DoJE=F BraDBF=T KetDBF=T FulRan=T
         wScrn=  0.000000 ICntrl=       600 IOpCl=  3 I1Cent=           6 NGrid=           0
         NMat0=    1 NMatS0=   1796 NMatT0=    0 NMatD0=    1 NMtDS0=    0 NMtDT0=    0
 Symmetry not used in FoFCou.
 DBF EigKep=  1.06D-06 EigRej=  9.87D-07
 NDBF=   1572  NBFD=  1572
 NRank=  1477 NBFDU=  1477
 S*AI*S=  13.4164971444    
 ExpMin= 3.60D-02 ExpMax= 6.29D+03 ExpMxC= 9.49D+02 IAcc=3 IRadAn=         5 AccDes= 0.00D+00
 Harris functional with IExCor= 1009 and IRadAn=       5 diagonalized for initial guess.
 HarFok:  IExCor= 1009 AccDes= 0.00D+00 IRadAn=         5 IDoV= 1 UseB2=F ITyADJ=14
 ICtDFT=  3500011 ScaDFX=  1.000000  1.000000  1.000000  1.000000
 FoFCou: FMM=F IPFlag=           0 FMFlag=      100000 FMFlg1=           0
         NFxFlg=           0 DoJE=T BraDBF=F KetDBF=T FulRan=T
         wScrn=  0.000000 ICntrl=       500 IOpCl=  0 I1Cent=   200000004 NGrid=           0
         NMat0=    1 NMatS0=      1 NMatT0=    0 NMatD0=    1 NMtDS0=    0 NMtDT0=    0
 Symmetry not used in FoFCou.
 Requested convergence on RMS density matrix=1.00D-08 within  32 cycles.
 Requested convergence on MAX density matrix=1.00D-06.
 Requested convergence on             energy=1.00D-06.
 No special actions if energy rises.
 FoFCou: FMM=F IPFlag=           0 FMFlag=      100000 FMFlg1=           0
         NFxFlg=           0 DoJE=T BraDBF=T KetDBF=F FulRan=T
         wScrn=  0.000000 ICntrl=       500 IOpCl=  0 I1Cent=           5 NGrid=           0
         NMat0=    1 NMatS0=      1 NMatT0=    0 NMatD0=    1 NMtDS0=    0 NMtDT0=    0
 Symmetry not used in FoFCou.
 Inv3:  Mode=1 IEnd=     8999472.
 Iteration    1 A*A^-1 deviation from unit magnitude is 3.33D-15 for   1504.
 Iteration    1 A*A^-1 deviation from orthogonality  is 2.17D-15 for   1686     87.
 Iteration    1 A^-1*A deviation from unit magnitude is 3.33D-15 for    381.
 Iteration    1 A^-1*A deviation from orthogonality  is 1.99D-15 for   1383    217.
 Error on total polarization charges =  0.04275
 SCF Done:  E(RM06L) =  -371.544949048     A.U. after   13 cycles
            NFock= 13  Conv=0.59D-08     -V/T= 2.0049
 SMD-CDS (non-electrostatic) energy       (kcal/mol) =      -0.82
 (included in total energy above)
 QCSCF skips out because SCF is already converged.
 DoSCS=F DFT=T ScalE2(SS,OS)=  1.000000  1.000000
 Range of M.O.s used for correlation:     1   338
 NBasis=   338 NAE=    37 NBE=    37 NFC=     0 NFV=     0
 NROrb=    338 NOA=    37 NOB=    37 NVA=   301 NVB=   301

 **** Warning!!: The largest alpha MO coefficient is  0.50276010D+02

 Symmetrizing basis deriv contribution to polar:
 IMax=3 JMax=2 DiffMx= 0.00D+00
 G2DrvN: will do    30 centers at a time, making    1 passes.
 Calling FoFCou, ICntrl=  3507 FMM=F I1Cent=   4 AccDes= 0.00D+00.
 NEqPCM:  Using equilibrium solvation (IEInf=0, Eps=  37.2190, EpsInf=   2.0463)
 G2PCM: DoFxE=T DoFxN=T DoGrad=T DoDP/DQ/DG/TGxP=FFFF NFrqRd=   0 IEInf=0 SqF1=F DoCFld=F IF1Alg=4.
 G2DrvN: will do    30 centers at a time, making    1 passes.
 Calling FoFCou, ICntrl=  3507 FMM=F I1Cent=1004 AccDes= 0.00D+00.
 End of G2Drv F.D. properties file   721 does not exist.
 End of G2Drv F.D. properties file   722 does not exist.
 End of G2Drv F.D. properties file   788 does not exist.
          IDoAtm=11111111111111111111111111111
 NEqPCM:  Using equilibrium solvation (IEInf=0, Eps=  37.2190, EpsInf=   2.0463)
          Differentiating once with respect to nuclear coordinates.
 FoFCou: FMM=F IPFlag=           0 FMFlag=      100000 FMFlg1=           0
         NFxFlg=           0 DoJE=F BraDBF=T KetDBF=F FulRan=T
         wScrn=  0.000000 ICntrl=       500 IOpCl=  0 I1Cent=           5 NGrid=           0
         NMat0=   90 NMatS0=     90 NMatT0=    0 NMatD0=   90 NMtDS0=    0 NMtDT0=    0
 Symmetry not used in FoFCou.
          There are    90 degrees of freedom in the 1st order CPHF.  IDoFFX=6 NUNeed=     0.
     84 vectors produced by pass  0 Test12= 1.24D-14 1.11D-09 XBig12= 9.94D-02 4.70D-02.
 AX will form    84 AO Fock derivatives at one time.
     84 vectors produced by pass  1 Test12= 1.24D-14 1.11D-09 XBig12= 6.81D-03 8.06D-03.
     84 vectors produced by pass  2 Test12= 1.24D-14 1.11D-09 XBig12= 9.32D-05 6.96D-04.
     84 vectors produced by pass  3 Test12= 1.24D-14 1.11D-09 XBig12= 1.24D-06 8.53D-05.
     84 vectors produced by pass  4 Test12= 1.24D-14 1.11D-09 XBig12= 3.29D-09 3.74D-06.
     72 vectors produced by pass  5 Test12= 1.24D-14 1.11D-09 XBig12= 5.73D-12 1.30D-07.
     12 vectors produced by pass  6 Test12= 1.24D-14 1.11D-09 XBig12= 5.72D-15 5.56D-09.
 InvSVY:  IOpt=1 It=  1 EMax= 5.55D-16
 Solved reduced A of dimension   504 with    90 vectors.
 End of Minotr F.D. properties file   721 does not exist.
 End of Minotr F.D. properties file   722 does not exist.
 End of Minotr F.D. properties file   788 does not exist.

 **********************************************************************

            Population analysis using the SCF Density.

 **********************************************************************

 Alpha  occ. eigenvalues --  -14.29359 -10.10276 -10.10268 -10.10252 -10.10184
 Alpha  occ. eigenvalues --  -10.05208 -10.05132 -10.05130 -10.04414  -0.97099
 Alpha  occ. eigenvalues --   -0.75420  -0.75368  -0.74934  -0.70503  -0.62881
 Alpha  occ. eigenvalues --   -0.61297  -0.61029  -0.54390  -0.48690  -0.47881
 Alpha  occ. eigenvalues --   -0.46766  -0.43600  -0.42976  -0.40280  -0.39699
 Alpha  occ. eigenvalues --   -0.38206  -0.37352  -0.36680  -0.36310  -0.35853
 Alpha  occ. eigenvalues --   -0.35183  -0.34690  -0.33582  -0.32458  -0.32283
 Alpha  occ. eigenvalues --   -0.31565  -0.31165
 Alpha virt. eigenvalues --   -0.00865   0.00290   0.00407   0.00512   0.02621
 Alpha virt. eigenvalues --    0.02709   0.02827   0.02931   0.03188   0.04386
 Alpha virt. eigenvalues --    0.05359   0.05660   0.05912   0.06217   0.06294
 Alpha virt. eigenvalues --    0.06477   0.06652   0.07965   0.08451   0.08729
 Alpha virt. eigenvalues --    0.09116   0.09510   0.10081   0.10392   0.10870
 Alpha virt. eigenvalues --    0.11577   0.11776   0.12236   0.12452   0.12756
 Alpha virt. eigenvalues --    0.13050   0.13404   0.13538   0.14059   0.14454
 Alpha virt. eigenvalues --    0.14595   0.14985   0.15247   0.15434   0.15859
 Alpha virt. eigenvalues --    0.16064   0.16193   0.16796   0.16849   0.17302
 Alpha virt. eigenvalues --    0.17678   0.17999   0.18502   0.18632   0.19013
 Alpha virt. eigenvalues --    0.19349   0.19673   0.19913   0.20385   0.20505
 Alpha virt. eigenvalues --    0.21002   0.21374   0.21466   0.22065   0.22864
 Alpha virt. eigenvalues --    0.23358   0.23461   0.24265   0.24564   0.25392
 Alpha virt. eigenvalues --    0.25996   0.26367   0.26658   0.27699   0.28603
 Alpha virt. eigenvalues --    0.29222   0.29434   0.29981   0.30462   0.30786
 Alpha virt. eigenvalues --    0.31344   0.31996   0.32193   0.32674   0.33641
 Alpha virt. eigenvalues --    0.37964   0.38643   0.39621   0.43309   0.45436
 Alpha virt. eigenvalues --    0.46131   0.46529   0.46666   0.48293   0.48619
 Alpha virt. eigenvalues --    0.49534   0.50880   0.52004   0.55074   0.56483
 Alpha virt. eigenvalues --    0.56926   0.58863   0.58950   0.59350   0.60547
 Alpha virt. eigenvalues --    0.60959   0.61784   0.62219   0.63622   0.65262
 Alpha virt. eigenvalues --    0.65506   0.66062   0.66655   0.67766   0.68327
 Alpha virt. eigenvalues --    0.68713   0.69596   0.69832   0.70731   0.70931
 Alpha virt. eigenvalues --    0.71649   0.72111   0.72922   0.73208   0.74718
 Alpha virt. eigenvalues --    0.75076   0.75513   0.76945   0.77477   0.78682
 Alpha virt. eigenvalues --    0.80032   0.81387   0.81861   0.83934   0.84498
 Alpha virt. eigenvalues --    0.87586   0.90083   0.92232   0.93379   0.97700
 Alpha virt. eigenvalues --    0.99127   1.03193   1.06010   1.07482   1.09237
 Alpha virt. eigenvalues --    1.13900   1.15657   1.18990   1.21973   1.23796
 Alpha virt. eigenvalues --    1.25893   1.28189   1.28700   1.31076   1.32945
 Alpha virt. eigenvalues --    1.35663   1.39590   1.43693   1.45267   1.47430
 Alpha virt. eigenvalues --    1.48347   1.49784   1.52127   1.52385   1.53309
 Alpha virt. eigenvalues --    1.54392   1.54972   1.55955   1.56843   1.57101
 Alpha virt. eigenvalues --    1.57988   1.59327   1.59993   1.60972   1.62062
 Alpha virt. eigenvalues --    1.62616   1.62898   1.64693   1.66088   1.66744
 Alpha virt. eigenvalues --    1.68225   1.69356   1.70647   1.71167   1.71827
 Alpha virt. eigenvalues --    1.73143   1.74447   1.76519   1.77198   1.79609
 Alpha virt. eigenvalues --    1.79896   1.82869   1.83777   1.85444   1.87114
 Alpha virt. eigenvalues --    1.87587   1.89295   1.91112   1.93436   1.95774
 Alpha virt. eigenvalues --    1.96711   1.97975   2.00295   2.04053   2.07746
 Alpha virt. eigenvalues --    2.09332   2.13803   2.15207   2.16323   2.17121
 Alpha virt. eigenvalues --    2.19218   2.19676   2.19915   2.23521   2.24800
 Alpha virt. eigenvalues --    2.26557   2.28117   2.29651   2.33542   2.34258
 Alpha virt. eigenvalues --    2.36355   2.36912   2.40724   2.42504   2.42995
 Alpha virt. eigenvalues --    2.44496   2.45435   2.46543   2.47035   2.47710
 Alpha virt. eigenvalues --    2.50737   2.53200   2.53784   2.54259   2.55443
 Alpha virt. eigenvalues --    2.57602   2.59003   2.59783   2.60701   2.61414
 Alpha virt. eigenvalues --    2.61714   2.63559   2.64428   2.66148   2.66809
 Alpha virt. eigenvalues --    2.67785   2.68357   2.69597   2.71927   2.73175
 Alpha virt. eigenvalues --    2.73553   2.74570   2.76497   2.76927   2.79511
 Alpha virt. eigenvalues --    2.82217   2.82774   2.84149   2.86982   2.88093
 Alpha virt. eigenvalues --    2.89641   2.92203   2.94022   2.98320   3.00708
 Alpha virt. eigenvalues --    3.02139   3.04900   3.08908   3.09213   3.10686
 Alpha virt. eigenvalues --    3.33584   3.37162   3.39025   3.40373   3.61689
 Alpha virt. eigenvalues --    3.63395   3.66554   3.66785   3.74867   3.77486
 Alpha virt. eigenvalues --    3.78291   3.81252   3.83309   3.83914   3.84230
 Alpha virt. eigenvalues --    3.86901   3.88709   3.89063   3.90214   3.91420
 Alpha virt. eigenvalues --    4.20296   4.22786   4.24385   4.28258   4.77956
 Alpha virt. eigenvalues --    4.79308   4.81894  23.99379  24.00986  24.01633
 Alpha virt. eigenvalues --   24.02874  24.12321  24.12792  24.14040  24.20756
 Alpha virt. eigenvalues --   35.64271
          Condensed to atoms (all electrons):
               1          2          3          4          5          6
     1  C    6.054353  -0.328914   0.043373  -0.294828   0.049304  -0.327592
     2  C   -0.328914   5.901366  -0.416086  -0.064363  -0.067084   0.067669
     3  C    0.043373  -0.416086   5.997189  -0.248245   0.115088  -0.066220
     4  C   -0.294828  -0.064363  -0.248245   5.683241  -0.129493   0.052011
     5  C    0.049304  -0.067084   0.115088  -0.129493   5.682198  -0.024724
     6  C   -0.327592   0.067669  -0.066220   0.052011  -0.024724   5.735076
     7  C    0.088390  -0.202856   0.096061  -0.067151   0.075182   0.016899
     8  C   -0.361178   0.257488  -0.495862   0.161640  -0.138911   0.157601
     9  H   -0.009134  -0.034368   0.030956   0.406660  -0.052902  -0.006774
    10  H    0.055832   0.044886  -0.015662   0.375536  -0.075452  -0.023614
    11  H    0.269019   0.076611  -0.060048   0.021792  -0.002342  -0.013971
    12  H    0.437365  -0.057286   0.075517  -0.020948   0.007774  -0.056644
    13  H   -0.050244   0.396222   0.028568   0.031801  -0.017453   0.019554
    14  H    0.037878   0.348904   0.003749   0.005002  -0.013436   0.010180
    15  H    0.084535  -0.058614   0.397348  -0.025377   0.034709  -0.017670
    16  H   -0.020441   0.032241   0.370668   0.018649   0.010150   0.010717
    17  H   -0.004334  -0.058606   0.004070   0.006222   0.006312   0.001656
    18  H   -0.016960   0.058888   0.025073   0.024985  -0.016577   0.000394
    19  H   -0.004787  -0.048493   0.000325  -0.053476   0.003639   0.007973
    20  H   -0.010891   0.040637  -0.006932  -0.013240   0.003751   0.360971
    21  H   -0.073585  -0.006862  -0.003656  -0.003124  -0.000951   0.429086
    22  H    0.036783  -0.006013   0.014552   0.009605   0.000022   0.300876
    23  H    0.007692  -0.008419   0.011477  -0.048817   0.397162   0.002505
    24  H    0.012357  -0.005784   0.035414   0.037579   0.315237  -0.009475
    25  H   -0.000975   0.020816  -0.092613  -0.051013   0.353377  -0.007692
    26  H   -0.023207  -0.015405   0.106805  -0.056756   0.032855   0.018798
    27  H    0.158775  -0.034388   0.124947  -0.010508   0.017508  -0.090744
    28  N    0.182687   0.184603   0.136304   0.249059  -0.078159  -0.067242
    29  H   -0.022026   0.000511  -0.083590   0.009155  -0.002472   0.012303
               7          8          9         10         11         12
     1  C    0.088390  -0.361178  -0.009134   0.055832   0.269019   0.437365
     2  C   -0.202856   0.257488  -0.034368   0.044886   0.076611  -0.057286
     3  C    0.096061  -0.495862   0.030956  -0.015662  -0.060048   0.075517
     4  C   -0.067151   0.161640   0.406660   0.375536   0.021792  -0.020948
     5  C    0.075182  -0.138911  -0.052902  -0.075452  -0.002342   0.007774
     6  C    0.016899   0.157601  -0.006774  -0.023614  -0.013971  -0.056644
     7  C    5.626466  -0.164225   0.011845  -0.033635  -0.033118   0.007506
     8  C   -0.164225   6.250203   0.003353   0.003488   0.093777  -0.036547
     9  H    0.011845   0.003353   0.561452  -0.045513   0.004328  -0.004842
    10  H   -0.033635   0.003488  -0.045513   0.622819  -0.007748   0.007001
    11  H   -0.033118   0.093777   0.004328  -0.007748   0.622669  -0.062689
    12  H    0.007506  -0.036547  -0.004842   0.007001  -0.062689   0.559277
    13  H   -0.053175  -0.004602   0.007006  -0.009990  -0.000800  -0.001330
    14  H   -0.042454   0.001000  -0.004014   0.004091  -0.005769   0.007287
    15  H    0.061434  -0.125722  -0.000884  -0.003874  -0.009512  -0.002860
    16  H    0.013626  -0.057730  -0.007736   0.003148   0.005284  -0.003938
    17  H    0.397290  -0.001005  -0.003268  -0.002276   0.000990  -0.000344
    18  H    0.317592  -0.014846   0.004653  -0.002801   0.001221   0.002302
    19  H    0.376764   0.007897  -0.005665  -0.004924   0.000656  -0.002760
    20  H   -0.025454   0.004774  -0.000708   0.000062   0.024082  -0.023474
    21  H    0.005580   0.014513  -0.000897   0.000703  -0.023121  -0.000969
    22  H   -0.018088  -0.011168   0.003302  -0.000216  -0.001693   0.010858
    23  H    0.002096  -0.008512  -0.013843  -0.013100  -0.000850  -0.000595
    24  H   -0.002260  -0.025447   0.009712  -0.003700   0.005653   0.003657
    25  H   -0.002432   0.065445  -0.005071   0.010293  -0.024869  -0.009305
    26  H    0.012406   0.246682  -0.001698   0.002972  -0.008155   0.002642
    27  H    0.015252   0.159772  -0.000768   0.002296  -0.048425   0.008915
    28  N   -0.100975   0.015740  -0.027639  -0.027750   0.015096  -0.035819
    29  H   -0.004795   0.464958   0.000998  -0.002865   0.004398   0.000017
              13         14         15         16         17         18
     1  C   -0.050244   0.037878   0.084535  -0.020441  -0.004334  -0.016960
     2  C    0.396222   0.348904  -0.058614   0.032241  -0.058606   0.058888
     3  C    0.028568   0.003749   0.397348   0.370668   0.004070   0.025073
     4  C    0.031801   0.005002  -0.025377   0.018649   0.006222   0.024985
     5  C   -0.017453  -0.013436   0.034709   0.010150   0.006312  -0.016577
     6  C    0.019554   0.010180  -0.017670   0.010717   0.001656   0.000394
     7  C   -0.053175  -0.042454   0.061434   0.013626   0.397290   0.317592
     8  C   -0.004602   0.001000  -0.125722  -0.057730  -0.001005  -0.014846
     9  H    0.007006  -0.004014  -0.000884  -0.007736  -0.003268   0.004653
    10  H   -0.009990   0.004091  -0.003874   0.003148  -0.002276  -0.002801
    11  H   -0.000800  -0.005769  -0.009512   0.005284   0.000990   0.001221
    12  H   -0.001330   0.007287  -0.002860  -0.003938  -0.000344   0.002302
    13  H    0.544826  -0.035594  -0.003320  -0.002037  -0.013584   0.015821
    14  H   -0.035594   0.581968   0.002885  -0.023889  -0.010543  -0.013543
    15  H   -0.003320   0.002885   0.559974  -0.029019   0.000260  -0.009279
    16  H   -0.002037  -0.023889  -0.029019   0.584560   0.003850  -0.016310
    17  H   -0.013584  -0.010543   0.000260   0.003850   0.533647  -0.024029
    18  H    0.015821  -0.013543  -0.009279  -0.016310  -0.024029   0.631269
    19  H   -0.006902   0.012774  -0.010081  -0.000314  -0.033257  -0.067173
    20  H   -0.008958  -0.016086  -0.001744   0.014205   0.001740  -0.002500
    21  H   -0.002732   0.002598   0.000080  -0.000090  -0.000232  -0.001005
    22  H    0.003877   0.002527  -0.000937  -0.037992  -0.001751   0.006130
    23  H    0.000766   0.000450  -0.000381   0.000940  -0.000176   0.000149
    24  H    0.003198  -0.000462  -0.021102  -0.001483  -0.000302   0.002334
    25  H   -0.004268   0.002836   0.007656  -0.001402  -0.000198  -0.002101
    26  H    0.001352  -0.002295  -0.012622   0.010490   0.000416   0.002610
    27  H   -0.000506   0.007484   0.029397  -0.018919   0.000368  -0.001298
    28  N   -0.027507  -0.018325  -0.018725  -0.042542   0.011374  -0.034277
    29  H    0.000632  -0.000734  -0.019691  -0.003542  -0.000160   0.000752
              19         20         21         22         23         24
     1  C   -0.004787  -0.010891  -0.073585   0.036783   0.007692   0.012357
     2  C   -0.048493   0.040637  -0.006862  -0.006013  -0.008419  -0.005784
     3  C    0.000325  -0.006932  -0.003656   0.014552   0.011477   0.035414
     4  C   -0.053476  -0.013240  -0.003124   0.009605  -0.048817   0.037579
     5  C    0.003639   0.003751  -0.000951   0.000022   0.397162   0.315237
     6  C    0.007973   0.360971   0.429086   0.300876   0.002505  -0.009475
     7  C    0.376764  -0.025454   0.005580  -0.018088   0.002096  -0.002260
     8  C    0.007897   0.004774   0.014513  -0.011168  -0.008512  -0.025447
     9  H   -0.005665  -0.000708  -0.000897   0.003302  -0.013843   0.009712
    10  H   -0.004924   0.000062   0.000703  -0.000216  -0.013100  -0.003700
    11  H    0.000656   0.024082  -0.023121  -0.001693  -0.000850   0.005653
    12  H   -0.002760  -0.023474  -0.000969   0.010858  -0.000595   0.003657
    13  H   -0.006902  -0.008958  -0.002732   0.003877   0.000766   0.003198
    14  H    0.012774  -0.016086   0.002598   0.002527   0.000450  -0.000462
    15  H   -0.010081  -0.001744   0.000080  -0.000937  -0.000381  -0.021102
    16  H   -0.000314   0.014205  -0.000090  -0.037992   0.000940  -0.001483
    17  H   -0.033257   0.001740  -0.000232  -0.001751  -0.000176  -0.000302
    18  H   -0.067173  -0.002500  -0.001005   0.006130   0.000149   0.002334
    19  H    0.650454   0.002086   0.000436  -0.000820   0.000367  -0.005315
    20  H    0.002086   0.629865  -0.027091  -0.060841  -0.000213  -0.000735
    21  H    0.000436  -0.027091   0.551037  -0.040311  -0.000048  -0.000258
    22  H   -0.000820  -0.060841  -0.040311   0.630331  -0.000093   0.002075
    23  H    0.000367  -0.000213  -0.000048  -0.000093   0.537923  -0.025654
    24  H   -0.005315  -0.000735  -0.000258   0.002075  -0.025654   0.625142
    25  H    0.003807   0.001227   0.001867  -0.001914  -0.031385  -0.065692
    26  H   -0.001165   0.000062  -0.000890  -0.003193   0.002957   0.001732
    27  H   -0.001310  -0.009953  -0.003817   0.000196   0.000115  -0.004801
    28  N    0.056039  -0.020351   0.012880   0.028460   0.012994  -0.024882
    29  H    0.000478  -0.000098   0.000815  -0.001681   0.000028  -0.000477
              25         26         27         28         29
     1  C   -0.000975  -0.023207   0.158775   0.182687  -0.022026
     2  C    0.020816  -0.015405  -0.034388   0.184603   0.000511
     3  C   -0.092613   0.106805   0.124947   0.136304  -0.083590
     4  C   -0.051013  -0.056756  -0.010508   0.249059   0.009155
     5  C    0.353377   0.032855   0.017508  -0.078159  -0.002472
     6  C   -0.007692   0.018798  -0.090744  -0.067242   0.012303
     7  C   -0.002432   0.012406   0.015252  -0.100975  -0.004795
     8  C    0.065445   0.246682   0.159772   0.015740   0.464958
     9  H   -0.005071  -0.001698  -0.000768  -0.027639   0.000998
    10  H    0.010293   0.002972   0.002296  -0.027750  -0.002865
    11  H   -0.024869  -0.008155  -0.048425   0.015096   0.004398
    12  H   -0.009305   0.002642   0.008915  -0.035819   0.000017
    13  H   -0.004268   0.001352  -0.000506  -0.027507   0.000632
    14  H    0.002836  -0.002295   0.007484  -0.018325  -0.000734
    15  H    0.007656  -0.012622   0.029397  -0.018725  -0.019691
    16  H   -0.001402   0.010490  -0.018919  -0.042542  -0.003542
    17  H   -0.000198   0.000416   0.000368   0.011374  -0.000160
    18  H   -0.002101   0.002610  -0.001298  -0.034277   0.000752
    19  H    0.003807  -0.001165  -0.001310   0.056039   0.000478
    20  H    0.001227   0.000062  -0.009953  -0.020351  -0.000098
    21  H    0.001867  -0.000890  -0.003817   0.012880   0.000815
    22  H   -0.001914  -0.003193   0.000196   0.028460  -0.001681
    23  H   -0.031385   0.002957   0.000115   0.012994   0.000028
    24  H   -0.065692   0.001732  -0.004801  -0.024882  -0.000477
    25  H    0.657808  -0.025958   0.009266   0.049574  -0.001441
    26  H   -0.025958   0.652381  -0.062243   0.034350  -0.027153
    27  H    0.009266  -0.062243   0.714168  -0.032345  -0.041141
    28  N    0.049574   0.034350  -0.032345   6.772583   0.008076
    29  H   -0.001441  -0.027153  -0.041141   0.008076   0.534914
 Mulliken charges:
               1
     1  C    0.030753
     2  C   -0.017301
     3  C   -0.128569
     4  C   -0.005597
     5  C   -0.484314
     6  C   -0.491910
     7  C   -0.373770
     8  C   -0.462576
     9  H    0.181460
    10  H    0.139994
    11  H    0.157535
    12  H    0.190230
    13  H    0.189380
    14  H    0.155529
    15  H    0.193135
    16  H    0.188857
    17  H    0.185870
    18  H    0.128526
    19  H    0.122747
    20  H    0.145809
    21  H    0.170045
    22  H    0.137117
    23  H    0.174466
    24  H    0.143741
    25  H    0.144355
    26  H    0.111232
    27  H    0.112706
    28  N   -0.213280
    29  H    0.173827
 Sum of Mulliken charges =   1.00000
 Mulliken charges with hydrogens summed into heavy atoms:
               1
     1  C    0.378518
     2  C    0.327609
     3  C    0.253423
     4  C    0.315858
     5  C   -0.021752
     6  C   -0.038938
     7  C    0.063373
     8  C   -0.064810
    28  N   -0.213280
 APT charges:
               1
     1  C   -0.390828
     2  C    0.692777
     3  C   -3.392036
     4  C    4.129857
     5  C   -2.451970
     6  C   -1.632370
     7  C   -0.076570
     8  C   -2.036576
     9  H   -2.813577
    10  H   -0.672270
    11  H    2.518604
    12  H   -3.243629
    13  H   -3.265458
    14  H    1.997511
    15  H    0.195215
    16  H    1.673375
    17  H   -1.965687
    18  H    3.622429
    19  H   -0.509195
    20  H   -1.965947
    21  H    1.580137
    22  H    3.374336
    23  H   -2.067236
    24  H    3.339952
    25  H    1.669047
    26  H   -1.223591
    27  H    0.594641
    28  N   -0.584035
    29  H    3.903094
 Sum of APT charges =   1.00000
 APT charges with hydrogens summed into heavy atoms:
               1
     1  C   -1.115854
     2  C   -0.575170
     3  C   -1.523446
     4  C    0.644010
     5  C    0.489793
     6  C    1.356156
     7  C    1.070977
     8  C    1.237569
    28  N   -0.584035
 Electronic spatial extent (au):  <R**2>=         167172.2362
 Charge=              1.0000 electrons
 Dipole moment (field-independent basis, Debye):
    X=             44.7277    Y=             48.6621    Z=             99.2816  Tot=            119.2703
 Quadrupole moment (field-independent basis, Debye-Ang):
   XX=            366.8810   YY=            443.5039   ZZ=           2001.6522
   XY=            453.0391   XZ=            924.7722   YZ=           1005.7416
 Traceless Quadrupole moment (field-independent basis, Debye-Ang):
   XX=           -570.4647   YY=           -493.8418   ZZ=           1064.3065
   XY=            453.0391   XZ=            924.7722   YZ=           1005.7416
 Octapole moment (field-independent basis, Debye-Ang**2):
  XXX=           2464.9565  YYY=           3478.9848  ZZZ=          39261.6655  XYY=           4125.5740
  XXY=           3711.7513  XXZ=           7575.8051  XZZ=          18645.5368  YZZ=          20273.2999
  YYZ=           9151.4441  XYZ=           9365.5968
 Hexadecapole moment (field-independent basis, Debye-Ang**3):
 XXXX=           8583.7387 YYYY=          19019.2710 ZZZZ=         744867.9725 XXXY=          24853.5266
 XXXZ=          50640.4754 YYYX=          32293.7594 YYYZ=          71474.0015 ZZZX=         365626.9451
 ZZZY=         397549.9903 XXYY=          32991.7815 XXZZ=         151780.3971 YYZZ=         183436.6936
 XXYZ=          76631.5344 YYXZ=          85131.1577 ZZXY=         188786.9689
 N-N= 5.420042077538D+02 E-N=-1.929814070218D+03  KE= 3.697438677257D+02
  Exact polarizability:       0.000       0.000       0.000       0.000       0.000       0.000
 Approx polarizability:     149.376       0.065     149.052       0.438      -0.044     148.216
 D2PCM: PCM CHGder 2nd derivatives, FixD1E=F FixD2E=F DoIter=F DoCFld=F I1PDM=0
 Calling FoFJK, ICntrl=    100527 FMM=F ISym2X=0 I1Cent= 4 IOpClX= 0 NMat=1 NMatS=1 NMatT=0.
 -------------------------------------------------------------------
 Center     Atomic                   Forces (Hartrees/Bohr)
 Number     Number              X              Y              Z
 -------------------------------------------------------------------
      1        6           0.000516619   -0.000311583    0.000993422
      2        6          -0.000194978   -0.000837797    0.000740997
      3        6          -0.007153858    0.002138148    0.006290351
      4        6          -0.000865683   -0.000972817    0.000967821
      5        6           0.001589032   -0.000633533   -0.001116854
      6        6          -0.000053174   -0.000692683   -0.000181325
      7        6          -0.000432162   -0.000259585   -0.001216022
      8        6          -0.014768530   -0.007482259   -0.017873602
      9        1          -0.000676743   -0.000586150    0.000528317
     10        1           0.000425227    0.000168158   -0.000276290
     11        1          -0.000693281    0.000360493    0.000402608
     12        1          -0.000567391    0.000747128    0.000144179
     13        1          -0.000262296    0.000165530    0.001225145
     14        1           0.000812899    0.000399354   -0.000241153
     15        1          -0.000138111    0.000919213   -0.001326147
     16        1           0.000662500   -0.000616692   -0.000865365
     17        1           0.000340301    0.000149301    0.000155593
     18        1           0.000379143   -0.001239139   -0.000389487
     19        1           0.000399306    0.000369620   -0.000066999
     20        1           0.000483493    0.000383539   -0.000288558
     21        1          -0.000982715   -0.000662127    0.000747220
     22        1           0.000645697    0.000150972   -0.000351357
     23        1           0.000903169   -0.001000319   -0.000072484
     24        1          -0.000736561    0.000467364   -0.001029464
     25        1          -0.000899278   -0.000645464    0.000329015
     26        1           0.013860698   -0.004502870   -0.000089836
     27        1           0.007268302    0.013319527   -0.000733372
     28        7           0.001098909    0.001230030   -0.000067915
     29        1          -0.000960536   -0.000525360    0.013661561
 -------------------------------------------------------------------
 Cartesian Forces:  Max     0.017873602 RMS     0.003945429
 FormGI is forming the generalized inverse of G from B-inverse, IUseBI=4.

 GradGradGradGradGradGradGradGradGradGradGradGradGradGradGradGradGradGrad
 Berny optimization.
 Internal  Forces:  Max     0.014024103 RMS     0.002412474
 Search for a local minimum.
 Step number   1 out of a maximum of  164
 All quantities printed in internal units (Hartrees-Bohrs-Radians)
 Mixed Optimization -- RFO/linear search
 Second derivative matrix not updated -- analytic derivatives used.
 ITU=  0
     Eigenvalues ---    0.00175   0.00192   0.00208   0.00270   0.00424
     Eigenvalues ---    0.00670   0.00955   0.01126   0.03623   0.03691
     Eigenvalues ---    0.03709   0.03728   0.03804   0.03918   0.04053
     Eigenvalues ---    0.04086   0.04170   0.04242   0.04382   0.04415
     Eigenvalues ---    0.04465   0.04505   0.04612   0.04762   0.06130
     Eigenvalues ---    0.06208   0.06588   0.07232   0.07284   0.07397
     Eigenvalues ---    0.07969   0.11388   0.11731   0.11969   0.12021
     Eigenvalues ---    0.12044   0.12100   0.12423   0.12613   0.13981
     Eigenvalues ---    0.14386   0.14471   0.15043   0.16119   0.16252
     Eigenvalues ---    0.16459   0.16710   0.19094   0.19489   0.23224
     Eigenvalues ---    0.23361   0.24027   0.25739   0.28994   0.29445
     Eigenvalues ---    0.30226   0.30999   0.32624   0.33529   0.33639
     Eigenvalues ---    0.33691   0.33943   0.33978   0.34042   0.34087
     Eigenvalues ---    0.34174   0.34185   0.34274   0.34328   0.34437
     Eigenvalues ---    0.34520   0.34606   0.34657   0.34697   0.34873
     Eigenvalues ---    0.36942   0.38149   0.38853   0.38889   0.39265
     Eigenvalues ---    0.47882
 RFO step:  Lambda=-4.28557339D-03 EMin= 1.75029568D-03
 Linear search not attempted -- first point.
 Iteration  1 RMS(Cart)=  0.04343581 RMS(Int)=  0.00125507
 Iteration  2 RMS(Cart)=  0.00136763 RMS(Int)=  0.00044391
 Iteration  3 RMS(Cart)=  0.00000134 RMS(Int)=  0.00044391
 Iteration  4 RMS(Cart)=  0.00000000 RMS(Int)=  0.00044391
 Variable       Old X    -DE/DX   Delta X   Delta X   Delta X     New X
                                 (Linear)    (Quad)   (Total)
    R1        2.85657  -0.00081   0.00000  -0.00215  -0.00215   2.85441
    R2        2.06116  -0.00062   0.00000  -0.00231  -0.00231   2.05884
    R3        2.06434  -0.00028   0.00000  -0.00065  -0.00065   2.06370
    R4        2.87582  -0.00114   0.00000  -0.00754  -0.00754   2.86828
    R5        2.85453  -0.00083   0.00000  -0.00331  -0.00331   2.85122
    R6        2.06775  -0.00122   0.00000  -0.00294  -0.00294   2.06482
    R7        2.05755   0.00024   0.00000   0.00115   0.00115   2.05870
    R8        2.88477  -0.00121   0.00000  -0.00374  -0.00374   2.88103
    R9        2.85730   0.00346   0.00000  -0.00147  -0.00147   2.85583
   R10        2.06726  -0.00129   0.00000  -0.00420  -0.00420   2.06307
   R11        2.06682  -0.00111   0.00000  -0.00325  -0.00325   2.06357
   R12        2.88571  -0.00070   0.00000  -0.00119  -0.00119   2.88452
   R13        2.84433   0.00074   0.00000   0.00140   0.00140   2.84573
   R14        2.06442  -0.00052   0.00000  -0.00084  -0.00084   2.06358
   R15        2.06131  -0.00050   0.00000  -0.00295  -0.00295   2.05837
   R16        2.87340   0.00309   0.00000   0.00515   0.00515   2.87854
   R17        2.06213   0.00105   0.00000   0.00232   0.00232   2.06445
   R18        2.06414  -0.00112   0.00000  -0.00304  -0.00304   2.06110
   R19        2.06615  -0.00116   0.00000  -0.00346  -0.00346   2.06269
   R20        2.06138  -0.00017   0.00000  -0.00045  -0.00045   2.06093
   R21        2.06677  -0.00137   0.00000  -0.00344  -0.00344   2.06332
   R22        2.06451  -0.00038   0.00000  -0.00128  -0.00128   2.06323
   R23        2.06507  -0.00036   0.00000  -0.00133  -0.00133   2.06374
   R24        2.06348  -0.00086   0.00000  -0.00157  -0.00157   2.06192
   R25        2.06344  -0.00030   0.00000  -0.00175  -0.00175   2.06169
   R26        2.02201   0.01246   0.00000   0.03250   0.03250   2.05451
   R27        2.02201   0.01402   0.00000   0.03648   0.03648   2.05848
   R28        2.02201   0.01365   0.00000   0.03901   0.03901   2.06102
    A1        1.94812  -0.00025   0.00000  -0.00473  -0.00474   1.94338
    A2        1.94349  -0.00041   0.00000  -0.00455  -0.00454   1.93894
    A3        2.00820   0.00019   0.00000  -0.00046  -0.00046   2.00774
    A4        1.86667   0.00041   0.00000   0.00838   0.00837   1.87504
    A5        1.85285  -0.00018   0.00000  -0.00172  -0.00174   1.85112
    A6        1.83500   0.00029   0.00000   0.00437   0.00437   1.83938
    A7        1.96095  -0.00106   0.00000  -0.01027  -0.01026   1.95069
    A8        1.90459   0.00158   0.00000   0.01244   0.01246   1.91705
    A9        2.01304  -0.00038   0.00000   0.00296   0.00296   2.01599
   A10        1.88897  -0.00010   0.00000  -0.00077  -0.00075   1.88822
   A11        1.83203   0.00075   0.00000   0.00397   0.00397   1.83600
   A12        1.85776  -0.00083   0.00000  -0.00892  -0.00895   1.84881
   A13        1.94675   0.00075   0.00000  -0.00095  -0.00095   1.94580
   A14        1.91567   0.00028   0.00000  -0.00200  -0.00200   1.91367
   A15        2.03288  -0.00033   0.00000   0.00162   0.00162   2.03450
   A16        1.86815   0.00001   0.00000   0.00676   0.00676   1.87491
   A17        1.84354  -0.00055   0.00000  -0.00326  -0.00326   1.84028
   A18        1.84737  -0.00020   0.00000  -0.00161  -0.00161   1.84576
   A19        1.93900  -0.00091   0.00000   0.00219   0.00220   1.94119
   A20        1.91961  -0.00054   0.00000  -0.00004  -0.00004   1.91957
   A21        2.03313   0.00288   0.00000   0.00341   0.00341   2.03654
   A22        1.88683   0.00013   0.00000  -0.00379  -0.00379   1.88303
   A23        1.83050  -0.00075   0.00000  -0.00306  -0.00307   1.82743
   A24        1.84695  -0.00092   0.00000   0.00060   0.00060   1.84754
   A25        1.85725   0.00144   0.00000   0.01121   0.01122   1.86846
   A26        1.97571  -0.00133   0.00000  -0.01287  -0.01288   1.96282
   A27        1.97886   0.00003   0.00000   0.00001  -0.00004   1.97882
   A28        1.86760  -0.00008   0.00000   0.00155   0.00160   1.86920
   A29        1.86883  -0.00048   0.00000   0.00200   0.00197   1.87080
   A30        1.90841   0.00047   0.00000  -0.00059  -0.00064   1.90777
   A31        1.95980   0.00053   0.00000   0.00470   0.00469   1.96449
   A32        1.88900  -0.00007   0.00000  -0.00254  -0.00254   1.88646
   A33        1.97117   0.00007   0.00000   0.00173   0.00171   1.97288
   A34        1.87634  -0.00031   0.00000  -0.00283  -0.00282   1.87352
   A35        1.88281   0.00008   0.00000   0.00541   0.00538   1.88819
   A36        1.88097  -0.00036   0.00000  -0.00726  -0.00727   1.87370
   A37        1.87333  -0.00001   0.00000   0.00020   0.00019   1.87353
   A38        1.95602   0.00084   0.00000   0.00669   0.00669   1.96271
   A39        1.99160  -0.00084   0.00000  -0.00470  -0.00469   1.98691
   A40        1.86857   0.00002   0.00000   0.00302   0.00300   1.87157
   A41        1.86572   0.00038   0.00000   0.00165   0.00164   1.86737
   A42        1.90219  -0.00034   0.00000  -0.00640  -0.00640   1.89579
   A43        1.91063   0.01039   0.00000   0.07426   0.07259   1.98322
   A44        1.91063   0.00713   0.00000   0.05184   0.04998   1.96062
   A45        1.91063  -0.00535   0.00000  -0.04011  -0.03920   1.87143
   A46        1.91063  -0.00617   0.00000  -0.01738  -0.02108   1.88955
   A47        1.91063  -0.00340   0.00000  -0.03251  -0.03151   1.87912
   A48        1.91063  -0.00260   0.00000  -0.03610  -0.03539   1.87524
   A49        1.89096   0.00118   0.00000   0.00211   0.00202   1.89298
   A50        1.96583  -0.00177   0.00000  -0.01356  -0.01362   1.95221
   A51        1.88362   0.00069   0.00000   0.00756   0.00760   1.89122
   A52        1.90805  -0.00030   0.00000  -0.00669  -0.00673   1.90132
   A53        1.86912  -0.00175   0.00000  -0.00120  -0.00119   1.86794
   A54        1.94305   0.00194   0.00000   0.01227   0.01231   1.95536
    D1        2.83634  -0.00014   0.00000   0.00113   0.00112   2.83746
    D2        0.76797  -0.00003   0.00000   0.00345   0.00345   0.77142
    D3       -1.31304   0.00041   0.00000   0.01315   0.01316  -1.29988
    D4        0.75151  -0.00022   0.00000  -0.00324  -0.00325   0.74826
    D5       -1.31686  -0.00011   0.00000  -0.00092  -0.00092  -1.31778
    D6        2.88532   0.00033   0.00000   0.00878   0.00879   2.89410
    D7       -1.33408  -0.00044   0.00000  -0.00522  -0.00522  -1.33930
    D8        2.88073  -0.00033   0.00000  -0.00289  -0.00289   2.87785
    D9        0.79973   0.00012   0.00000   0.00681   0.00682   0.80655
   D10        1.01175   0.00031   0.00000  -0.00492  -0.00493   1.00682
   D11       -1.10117   0.00101   0.00000   0.01071   0.01069  -1.09048
   D12        3.03002  -0.00078   0.00000  -0.00128  -0.00126   3.02877
   D13       -3.10751  -0.00002   0.00000  -0.01263  -0.01264  -3.12015
   D14        1.06276   0.00067   0.00000   0.00299   0.00298   1.06574
   D15       -1.08923  -0.00111   0.00000  -0.00899  -0.00897  -1.09820
   D16       -1.13296   0.00049   0.00000  -0.00207  -0.00207  -1.13503
   D17        3.03732   0.00119   0.00000   0.01356   0.01354   3.05086
   D18        0.88532  -0.00059   0.00000   0.00157   0.00160   0.88692
   D19       -0.89667  -0.00013   0.00000  -0.03540  -0.03539  -0.93206
   D20       -2.94345  -0.00062   0.00000  -0.04295  -0.04295  -2.98640
   D21        1.16715  -0.00017   0.00000  -0.03601  -0.03600   1.13115
   D22        1.19843   0.00013   0.00000  -0.03453  -0.03454   1.16389
   D23       -0.84835  -0.00036   0.00000  -0.04208  -0.04210  -0.89045
   D24       -3.02093   0.00009   0.00000  -0.03514  -0.03515  -3.05609
   D25       -2.99535  -0.00002   0.00000  -0.03485  -0.03483  -3.03018
   D26        1.24105  -0.00050   0.00000  -0.04239  -0.04239   1.19866
   D27       -0.93153  -0.00005   0.00000  -0.03545  -0.03544  -0.96697
   D28       -2.97435  -0.00062   0.00000  -0.05109  -0.05107  -3.02541
   D29       -0.82608  -0.00224   0.00000  -0.07062  -0.07063  -0.89670
   D30        1.28115  -0.00111   0.00000  -0.06037  -0.06036   1.22078
   D31        1.14102   0.00041   0.00000  -0.04284  -0.04283   1.09820
   D32       -2.99389  -0.00121   0.00000  -0.06237  -0.06238  -3.05628
   D33       -0.88667  -0.00008   0.00000  -0.05212  -0.05212  -0.93879
   D34       -0.85938   0.00055   0.00000  -0.03991  -0.03990  -0.89929
   D35        1.28888  -0.00107   0.00000  -0.05943  -0.05946   1.22942
   D36       -2.88708   0.00006   0.00000  -0.04919  -0.04920  -2.93627
   D37        1.18651  -0.00176   0.00000  -0.03285  -0.03403   1.15248
   D38       -3.00228   0.00141   0.00000   0.02310   0.02421  -2.97807
   D39       -0.90788  -0.00068   0.00000  -0.01394  -0.01386  -0.92175
   D40       -3.02921  -0.00110   0.00000  -0.02633  -0.02751  -3.05673
   D41       -0.93482   0.00207   0.00000   0.02961   0.03073  -0.90409
   D42        1.15958  -0.00002   0.00000  -0.00742  -0.00735   1.15223
   D43       -0.93128  -0.00138   0.00000  -0.02889  -0.03008  -0.96136
   D44        1.16311   0.00180   0.00000   0.02705   0.02817   1.19128
   D45       -3.02568  -0.00030   0.00000  -0.00998  -0.00991  -3.03559
   D46       -0.59625  -0.00025   0.00000  -0.02719  -0.02714  -0.62339
   D47       -2.69938  -0.00038   0.00000  -0.01639  -0.01643  -2.71581
   D48        1.52227   0.00079   0.00000  -0.01813  -0.01814   1.50412
   D49       -2.76776  -0.00057   0.00000  -0.02446  -0.02440  -2.79217
   D50        1.41230  -0.00069   0.00000  -0.01365  -0.01369   1.39860
   D51       -0.64925   0.00048   0.00000  -0.01539  -0.01541  -0.66465
   D52        1.53785  -0.00026   0.00000  -0.02997  -0.02992   1.50793
   D53       -0.56528  -0.00039   0.00000  -0.01916  -0.01921  -0.58449
   D54       -2.62682   0.00078   0.00000  -0.02091  -0.02092  -2.64774
   D55       -0.95833   0.00029   0.00000   0.00911   0.00909  -0.94924
   D56       -3.00482   0.00021   0.00000   0.00721   0.00724  -2.99758
   D57        1.09141   0.00065   0.00000   0.01874   0.01873   1.11014
   D58        1.13005  -0.00049   0.00000   0.00575   0.00573   1.13578
   D59       -0.91644  -0.00057   0.00000   0.00386   0.00388  -0.91256
   D60       -3.10340  -0.00013   0.00000   0.01538   0.01537  -3.08802
   D61       -3.05248  -0.00008   0.00000   0.00895   0.00892  -3.04356
   D62        1.18421  -0.00016   0.00000   0.00705   0.00708   1.19129
   D63       -1.00274   0.00027   0.00000   0.01858   0.01857  -0.98417
   D64        1.28808  -0.00093   0.00000  -0.04618  -0.04614   1.24194
   D65       -2.96255  -0.00011   0.00000  -0.04052  -0.04053  -3.00309
   D66       -0.87770  -0.00045   0.00000  -0.04237  -0.04241  -0.92011
   D67       -0.86332  -0.00102   0.00000  -0.04885  -0.04880  -0.91212
   D68        1.16923  -0.00020   0.00000  -0.04319  -0.04320   1.12603
   D69       -3.02910  -0.00054   0.00000  -0.04504  -0.04507  -3.07417
   D70       -2.85607  -0.00046   0.00000  -0.04353  -0.04349  -2.89956
   D71       -0.82351   0.00036   0.00000  -0.03788  -0.03789  -0.86140
   D72        1.26134   0.00003   0.00000  -0.03973  -0.03976   1.22158
         Item               Value     Threshold  Converged?
 Maximum Force            0.014024     0.000450     NO 
 RMS     Force            0.002412     0.000300     NO 
 Maximum Displacement     0.216430     0.001800     NO 
 RMS     Displacement     0.043631     0.001200     NO 
 Predicted change in Energy=-2.327612D-03
 GradGradGradGradGradGradGradGradGradGradGradGradGradGradGradGradGradGrad

                          Input orientation:                          
 ---------------------------------------------------------------------
 Center     Atomic      Atomic             Coordinates (Angstroms)
 Number     Number       Type             X           Y           Z
 ---------------------------------------------------------------------
      1          6           0       10.129822   11.103807   19.846014
      2          6           0        7.821720   10.332265   20.259504
      3          6           0        9.439740   10.324572   22.142784
      4          6           0        9.658150    8.710711   20.208196
      5          6           0       11.008411    8.206632   20.644563
      6          6           0        9.774323   12.558682   20.042337
      7          6           0        6.822031    9.544632   21.069898
      8          6           0       10.812735   10.722838   22.632807
      9          1           0        9.572641    8.720175   19.119592
     10          1           0        8.874709    8.063138   20.599751
     11          1           0       11.163435   10.906513   20.128353
     12          1           0       10.014056   10.808490   18.801035
     13          1           0        7.763352   10.088309   19.196033
     14          1           0        7.632573   11.398952   20.374551
     15          1           0        9.109039    9.388499   22.596962
     16          1           0        8.714949   11.094412   22.415683
     17          1           0        5.840220    9.702714   20.618561
     18          1           0        6.761374    9.887293   22.104038
     19          1           0        7.003674    8.468858   21.069453
     20          1           0        8.873893   12.846404   19.498424
     21          1           0       10.596243   13.163781   19.654431
     22          1           0        9.639010   12.827600   21.091829
     23          1           0       11.154712    7.232469   20.172259
     24          1           0       11.067134    8.052339   21.722684
     25          1           0       11.833286    8.846642   20.326129
     26          1           0       11.600810   10.041055   22.322784
     27          1           0       11.088598   11.728801   22.318934
     28          7           0        9.283789   10.123394   20.637734
     29          1           0       10.780615   10.717767   23.722967
 ---------------------------------------------------------------------
                    Distance matrix (angstroms):
                    1          2          3          4          5
     1  C    0.000000
     2  C    2.468519   0.000000
     3  C    2.521621   2.482900   0.000000
     4  C    2.465879   2.450417   2.528810   0.000000
     5  C    3.131010   3.849882   3.031677   1.505894   0.000000
     6  C    1.510491   2.969302   3.084651   3.853295   4.563550
     7  C    3.856215   1.508801   2.934585   3.079208   4.415533
     8  C    2.894429   3.838136   1.511243   3.355661   3.212895
     9  H    2.553398   2.638932   3.425120   1.091999   2.156548
    10  H    3.374773   2.524578   2.795406   1.089240   2.138991
    11  H    1.089494   3.393232   2.714354   2.663419   2.753155
    12  H    1.092061   2.675866   3.425099   2.550970   3.340210
    13  H    2.655916   1.092653   3.398446   2.551962   4.021114
    14  H    2.569574   1.089418   2.747142   3.370055   4.654040
    15  H    3.398822   2.830476   1.091729   2.543053   2.969223
    16  H    2.933453   2.455165   1.091993   3.382995   4.090979
    17  H    4.578272   2.109881   3.958094   3.965988   5.380440
    18  H    4.233795   2.173623   2.714104   3.656483   4.794999
    19  H    4.267618   2.190320   3.245016   2.801160   4.035742
    20  H    2.175965   2.829701   3.697629   4.268816   5.234242
    21  H    2.120789   4.010184   3.948482   4.584376   5.071841
    22  H    2.182753   3.197187   2.722015   4.210694   4.840315
    23  H    4.017972   4.552493   4.047864   2.103852   1.092460
    24  H    3.702958   4.227490   2.826294   2.170798   1.090687
    25  H    2.868291   4.278339   3.348668   2.182569   1.091528
    26  H    3.070446   4.315490   2.187009   3.164684   2.555869
    27  H    2.724922   4.106587   2.172929   3.950983   3.900721
    28  N    1.517828   1.524576   1.526424   1.523260   2.578438
    29  H    3.950104   4.571570   2.109391   4.200217   3.979229
                    6          7          8          9         10
     6  C    0.000000
     7  C    4.342397   0.000000
     8  C    3.340533   4.444836   0.000000
     9  H    3.953007   3.471207   4.229796   0.000000
    10  H    4.618434   2.574752   3.868238   1.763428   0.000000
    11  H    2.160253   4.646398   2.535551   2.885879   3.680389
    12  H    2.159044   4.115106   3.915061   2.158097   3.474255
    13  H    3.295903   2.166343   4.638187   2.269617   2.703120
    14  H    2.458136   2.139857   3.958570   3.537602   3.566689
    15  H    4.125381   2.754397   2.164330   3.571231   2.408391
    16  H    2.983142   2.792149   2.141475   4.151729   3.537196
    17  H    4.895484   1.092085   5.461113   4.140442   3.449158
    18  H    4.523803   1.091119   4.170283   4.262899   3.171216
    19  H    5.045605   1.091001   4.693980   3.234921   1.971295
    20  H    1.090596   4.193014   4.253587   4.202087   4.908417
    21  H    1.091864   5.417237   3.856915   4.591236   5.465699
    22  H    1.091815   4.325937   2.860466   4.556869   4.850401
    23  H    5.503717   4.992392   4.284148   2.413364   2.463975
    24  H    4.980166   4.546863   2.832774   3.074996   2.463295
    25  H    4.254304   5.114006   3.143628   2.565588   3.072772
    26  H    3.856805   4.965168   1.087201   4.014802   3.783203
    27  H    2.756613   4.953209   1.089302   4.646046   4.614540
    28  N    2.554554   2.565538   2.584052   2.087394   2.100820
    29  H    4.236583   4.907689   1.090645   5.161457   4.520400
                   11         12         13         14         15
    11  H    0.000000
[...]
 8184,0.00043086,-0.00025183,-0.01106292,-0.00443009,0.02609888,-0.2676
 3646,-0.10304693,0.00008262,0.00003447,0.00005209,0.00004782,-0.000030
 57,0.00006008,-0.00023950,0.00026028,-0.00012502,-0.00058797,0.0005884
 8,0.00016399,0.00004339,0.00036805,-0.00005194,0.00024159,0.00007447,0
 .00010989,-0.00000402,-0.00000442,0.00002065,0.00002461,-0.00001128,0.
 00002085,0.00026769,-0.00005644,0.00006495,0.00002166,-0.00001512,-0.0
 0003521,0.00003761,-0.00003203,-0.00006460,0.00003429,0.00002045,-0.00
 002130,-0.00000538,0.00001068,-0.00001071,-0.00000759,0.00000742,-0.00
 002142,0.00004856,-0.00005425,-0.00002096,-0.00000017,-0.00002629,-0.0
 0000084,0.00001161,-0.00001433,-0.00001254,-0.03021483,0.28758429,-0.0
 0020386,0.00001373,0.00021120,0.00016382,0.00031972,0.00023801,-0.0004
 9512,0.00024512,-0.00025916,-0.00072430,0.00706621,0.00115935,0.012027
 90,-0.10440935,-0.09169228,-0.00004211,-0.00004617,-0.00001660,-0.0000
 2354,0.00000126,-0.00001706,-0.00050728,-0.00018800,-0.00007710,0.0005
 3462,0.00028077,0.00064806,0.00003816,0.00000480,0.00017273,-0.0000795
 7,-0.00010364,-0.00009846,0.00001700,-0.00001922,-0.00000079,0.0000077
 4,-0.00000013,-0.00001993,-0.00016164,0.00006673,-0.00003091,-0.000086
 62,0.00003707,0.00008546,0.00006104,0.00001694,0.00012666,-0.00001607,
 -0.00001721,0.00000602,-0.00000316,-0.00000757,0.00000461,-0.00000878,
 -0.00001449,0.00001008,-0.00003236,0.00002863,0.00001697,0.00000147,0.
 00001678,0.00000377,-0.00001617,0.00002184,0.00001120,-0.01081233,0.11
 173576,0.09593180,-0.00024753,-0.00017959,0.00008817,0.00010647,-0.000
 05655,0.00003473,-0.00023771,0.00093556,-0.00038024,-0.00494740,0.0006
 6253,-0.03357753,-0.05258629,0.00389157,-0.03270700,0.00011333,0.00004
 535,0.00001184,-0.00000621,-0.00000518,-0.00003770,-0.00009717,-0.0000
 3922,0.00029487,-0.00547746,0.00281454,-0.00099057,0.00193679,-0.00021
 832,0.00027661,0.00006379,0.00004051,0.00000611,-0.00005733,-0.0000959
 8,0.00004398,0.00008106,-0.00002548,0.00013095,-0.00003637,0.00006150,
 0.00012667,-0.00011258,-0.00008547,0.00010962,-0.00002434,-0.00007370,
 0.00007179,-0.00001569,-0.00000023,0.00001492,-0.00001062,-0.00000283,
 0.00001526,0.00002081,0.00001319,-0.00001843,-0.00000129,-0.00001920,0
 .00000374,-0.00000741,0.00002913,-0.00000391,-0.00000633,0.00001080,-0
 .00000507,-0.00074744,-0.00067014,0.00381431,0.05722894,-0.00016067,-0
 .00029624,-0.00001002,0.00020140,0.00002033,-0.00001374,0.00064889,-0.
 00073142,0.00028117,0.00175649,-0.00264046,0.01138611,0.00328503,-0.04
 795561,0.02903070,0.00008636,0.00004504,0.00002779,0.00000109,0.000026
 49,0.00001763,0.00004876,-0.00110656,-0.00060653,0.00186443,0.00070702
 ,0.00021949,-0.00039811,0.00011127,-0.00084222,0.00008315,0.00003988,0
 .00005783,-0.00003661,0.00005732,-0.00005537,-0.00005358,-0.00000775,-
 0.00006960,-0.00000565,-0.00002866,-0.00007340,0.00011244,0.00007492,-
 0.00006690,-0.00011208,0.00005361,-0.00008423,-0.00000384,-0.00001395,
 0.00000185,0.00000872,-0.00000054,-0.00000461,-0.00000781,-0.00001462,
 0.00000460,0.00001167,-0.00003273,-0.00000159,-0.00000357,0.00001035,-
 0.00000343,0.00000744,-0.00001507,-0.00000502,-0.00407713,0.00405435,-
 0.02818821,-0.00564534,0.05178293,-0.00008366,0.00002503,0.00009505,0.
 00013609,0.00011874,0.00009649,-0.00051869,0.00048046,0.00004642,-0.00
 049003,-0.00036415,-0.00516178,-0.03505775,0.03015074,-0.31281115,0.00
 000833,-0.00002778,-0.00003511,-0.00002405,-0.00000128,-0.00003758,-0.
 00079240,-0.00117714,-0.00045271,-0.00107585,0.00048124,0.00138608,0.0
 0001150,0.00001116,0.00084661,-0.00006286,-0.00003539,-0.00003012,0.00
 001581,-0.00003772,0.00003444,0.00002472,-0.00001052,0.00004175,-0.000
 07037,0.00002583,0.00001184,-0.00004699,0.00022388,-0.00001205,0.00007
 170,0.00006519,0.00007212,-0.00001507,0.00000409,0.00001248,-0.0000045
 1,-0.00000490,0.00001074,0.00001040,0.00002147,0.00000189,-0.00001156,
 0.00001957,0.00001807,-0.00000036,0.00001847,-0.00000272,-0.00001433,0
 .00001871,0.00002468,-0.00121297,0.00272078,-0.01095826,0.04081735,-0.
 02888077,0.33670116,-0.00035112,-0.00025248,-0.00005303,0.00000388,-0.
 00022579,0.00000154,-0.00018129,0.00008345,-0.00013578,-0.02123671,-0.
 02014762,0.01236542,-0.18438659,-0.11366209,0.07226603,0.00044329,0.00
 020172,-0.00000594,-0.00025300,-0.00005569,-0.00014381,-0.00009799,0.0
 0015099,-0.00011770,0.00115707,0.00019425,0.00000908,-0.00455999,0.002
 78486,-0.00201681,0.00055980,0.00126565,0.00025743,-0.00008400,0.00003
 987,-0.00001498,0.00000874,-0.00002309,0.00000159,0.00000682,0.0000364
 6,-0.00001038,-0.00001534,-0.00005609,-0.00011536,0.00004343,0.0000226
 1,0.00006510,-0.00003420,0.00014599,0.00004951,0.00001654,-0.00000188,
 0.00001274,0.00005000,0.00024855,0.00006303,0.00007214,-0.00014467,-0.
 00002422,-0.00003201,0.00005777,0.00000078,0.00000574,-0.00004985,-0.0
 0001434,0.00280566,0.00342423,-0.00194985,0.00333821,0.00395350,-0.002
 48419,0.20081530,0.00031215,-0.00120501,0.00005424,0.00022505,0.000172
 53,0.00021574,0.00005281,-0.00007803,-0.00026855,0.00987700,0.00751635
 ,-0.00582946,-0.11600638,-0.13946973,0.06319141,0.00012090,0.00000012,
 -0.00006700,-0.00002644,0.00005895,0.00000021,-0.00016643,0.00005799,0
 .00012395,-0.00057805,0.00009484,-0.00012065,0.00256010,0.00021618,0.0
 0043475,0.00169800,-0.00356865,0.00016470,-0.00003261,0.00010088,0.000
 07210,-0.00000745,0.00000213,0.00000399,-0.00011739,0.00001055,-0.0000
 0668,0.00001847,0.00001137,0.00004516,0.00002114,0.00001092,0.00002643
 ,-0.00002818,-0.00005876,0.00001666,-0.00000187,-0.00000708,0.00000059
 ,-0.00001091,-0.00005074,-0.00000901,0.00002515,-0.00000495,-0.0000068
 3,-0.00000685,0.00003226,-0.00000656,0.00000568,0.00000736,0.00000980,
 -0.01973057,-0.01485848,0.01181711,-0.00032890,-0.00206054,-0.00100019
 ,0.12308749,0.15242901,-0.00018527,0.00044052,0.00031351,0.00013366,-0
 .00014034,0.00000644,0.00016905,0.00014082,-0.00021415,-0.00442165,-0.
 00781841,0.00229750,0.07253211,0.06323726,-0.08665151,-0.00007510,0.00
 001655,-0.00006638,-0.00007842,-0.00004072,-0.00003154,0.00016099,0.00
 006865,0.00030847,0.00035667,-0.00049685,0.00041586,-0.00140750,0.0008
 5566,0.00087383,-0.00010189,0.00049657,0.00007921,0.00003319,-0.000074
 87,-0.00014581,-0.00002539,-0.00000271,-0.00001980,0.00001544,-0.00000
 026,-0.00000932,-0.00001324,-0.00005775,0.00000421,-0.00003962,-0.0000
 4651,0.00003878,-0.00001131,0.00002889,0.00001198,0.00000248,-0.000004
 29,0.00000382,-0.00000782,0.00005143,0.00002143,-0.00002244,0.00003551
 ,0.00001592,-0.00000004,0.00001360,-0.00000866,-0.00000810,-0.00001513
 ,-0.00000264,-0.01070143,-0.00779384,0.00457284,0.02178615,0.01814274,
 -0.00910107,-0.07850565,-0.06828686,0.08721407,-0.00011525,-0.00018523
 ,0.00000517,0.00005538,-0.00002706,0.00005833,-0.02063393,0.02073642,0
 .00970708,-0.00051119,0.00010474,-0.00038147,-0.00037977,0.00105766,-0
 .00036693,0.00016715,-0.00006781,0.00008856,-0.00003528,0.00004061,0.0
 0001342,-0.18865837,0.12722039,0.05040412,0.00012621,-0.00015333,0.000
 02416,0.00000322,0.00003906,-0.00000416,0.00006191,0.00016524,-0.00028
 075,0.00015841,0.00002842,-0.00004594,-0.00001205,-0.00008316,-0.00010
 749,0.00007784,-0.00010963,0.00002154,0.00129301,0.00003546,0.00002852
 ,-0.00437712,-0.00259349,-0.00238205,-0.00001909,-0.00001876,-0.000043
 29,0.00006323,0.00002784,-0.00007778,-0.00001021,-0.00002503,-0.000023
 37,0.00001956,-0.00005502,0.00004125,0.00000103,0.00000394,-0.00002607
 ,-0.00003088,-0.00001878,0.00001007,0.00029502,0.00019390,0.00056139,0
 .00051685,-0.00075022,0.00072440,0.00011815,0.00012539,-0.00007891,0.2
 0407993,0.00017190,-0.00020385,-0.00051989,-0.00001109,-0.00000560,0.0
 0012065,-0.00787904,0.00756454,0.00491612,-0.00021254,0.00033390,0.000
 31776,-0.00041680,-0.00247274,-0.00152460,0.00020796,-0.00016848,-0.00
 000771,-0.00004444,-0.00000685,0.00000969,0.13005345,-0.16496075,-0.04
 771956,0.00007047,-0.00006338,-0.00000460,0.00002708,-0.00003636,-0.00
 000314,-0.00006410,-0.00011897,0.00033707,-0.00007407,0.00002580,0.000
 00536,0.00003363,-0.00001245,-0.00001654,0.00001478,-0.00003204,0.0000
 0048,0.00061940,0.00049842,0.00027553,-0.00217757,0.00029174,-0.000784
 68,-0.00000342,-0.00000911,-0.00001355,0.00000539,0.00000819,-0.000026
 02,-0.00000575,-0.00000856,-0.00000784,-0.00002123,0.00003369,0.000139
 74,-0.00000209,-0.00000149,-0.00000117,-0.00014529,0.00020366,0.000017
 37,-0.00012093,-0.00019261,-0.00036252,-0.00059983,-0.00304266,-0.0021
 7045,-0.00001073,-0.00016778,0.00002371,-0.13859587,0.17824159,0.00007
 954,0.00041430,-0.00000005,-0.00028835,0.00006152,0.00006365,-0.009915
 56,0.00887064,0.00128627,-0.00016689,0.00007171,0.00017242,-0.00076702
 ,-0.00164839,-0.00110521,-0.00026767,0.00016959,-0.00004022,0.00004884
 ,-0.00001990,0.00001982,0.05333273,-0.04750091,-0.06303684,0.00006863,
 0.00005976,0.00006676,0.00006955,-0.00002806,-0.00000251,-0.00030913,-
 0.00008715,-0.00020475,0.00006181,-0.00005150,0.00005122,0.00006168,-0
 .00004465,-0.00004089,0.00005240,-0.00004571,-0.00001203,0.00066058,-0
 .00025241,-0.00003292,-0.00256274,-0.00075133,0.00034672,0.00001922,0.
 00000747,-0.00001822,0.00002080,0.00002274,-0.00001648,-0.00000821,-0.
 00000414,-0.00001527,0.00000028,0.00000630,-0.00011129,0.00000944,-0.0
 0001781,0.00001098,0.00006004,-0.00012044,-0.00004703,0.00001410,-0.00
 007004,-0.00009636,-0.00004957,-0.00118580,-0.00042838,0.00007081,-0.0
 0016086,-0.00035563,-0.05488770,0.05514790,0.06690617,0.00010274,-0.00
 051489,-0.00029717,0.00016929,-0.00005219,0.00025377,-0.00893592,-0.02
 877994,0.01244787,-0.00012981,0.00018267,-0.00002022,-0.00000823,0.000
 30830,-0.00005357,0.00019087,0.00026604,-0.00111162,-0.00011514,0.0000
 5988,0.00011815,-0.06437040,-0.06027652,0.01993599,0.00006449,-0.00004
 750,-0.00006608,0.00002298,0.00010732,0.00002147,0.00016260,0.00010845
 ,0.00007210,0.00019935,0.00018362,0.00002333,0.00004107,0.00002227,-0.
 00004712,-0.00004728,0.00000803,-0.00000787,-0.00508044,-0.00126750,-0
 .00288678,0.00177932,0.00033886,0.00023574,-0.00002394,-0.00001417,-0.
 00007463,0.00003702,-0.00000818,-0.00014426,0.00000686,-0.00000658,-0.
 00000706,-0.00003064,0.00004309,0.00030933,-0.00006491,0.00000875,0.00
 002644,-0.00126308,0.00068998,-0.00086600,0.00006844,0.00003381,0.0001
 3982,0.00002273,-0.00013409,0.00016912,0.00002543,-0.00000289,-0.00005
 352,0.00632325,0.01994407,-0.00872255,0.07137009,-0.00034853,-0.000094
 99,0.00033682,0.00012632,0.00001965,-0.00000326,-0.00172483,-0.0068620
 5,0.00241308,0.00010199,0.00008034,0.00006624,-0.00000098,-0.00041844,
 0.00018451,0.00098452,-0.00014601,0.00097763,-0.00001119,0.00002532,0.
 00000696,-0.06291440,-0.27517549,0.07904666,0.00000280,0.00000907,-0.0
 0006055,0.00001030,0.00003612,-0.00000868,0.00035221,-0.00024941,-0.00
 028434,0.00023871,-0.00002021,0.00002467,-0.00002862,0.00002047,-0.000
 05926,-0.00002316,-0.00002413,-0.00000171,-0.00123092,0.00095026,-0.00
 079299,0.00014736,0.00078402,-0.00030282,-0.00001186,-0.00000770,-0.00
 001986,0.00003064,0.00000594,-0.00004481,0.00000053,-0.00000143,-0.000
 00481,0.00005999,-0.00005960,0.00021820,-0.00012486,-0.00003886,0.0000
 7011,0.00076789,-0.00010644,0.00090098,-0.00004188,-0.00002869,-0.0001
 7743,-0.00006660,0.00009712,-0.00031544,-0.00000161,-0.00000747,0.0000
 4202,-0.00632258,-0.01595478,0.00715907,0.06892246,0.29525474,-0.00029
 193,-0.00089281,-0.00151738,-0.00023058,0.00012871,0.00008946,-0.00278
 554,-0.01187097,0.00221605,0.00016969,-0.00022694,0.00002137,-0.000023
 62,-0.00020490,0.00005408,-0.00080489,0.00071624,-0.00144197,0.0000339
 2,0.00000116,0.00007052,0.02211497,0.08036520,-0.07180756,0.00000481,0
 .00006139,-0.00003110,-0.00001079,0.00005678,-0.00001455,-0.00024909,-
 0.00055641,-0.00154210,-0.00007843,0.00003187,0.00011120,0.00010008,-0
 .00001246,0.00005429,-0.00004544,0.00000888,-0.00000513,-0.00207335,-0
 .00051092,0.00042689,0.00051976,0.00052617,0.00003325,0.00001836,0.000
 01642,-0.00001944,-0.00000059,0.00000264,-0.00003040,0.00000159,0.0000
 0644,-0.00000957,-0.00000041,0.00003646,0.00010131,0.00006461,0.000019
 33,-0.00005596,-0.00142280,0.00067474,-0.00099744,-0.00003543,-0.00002
 562,-0.00011187,-0.00003327,0.00003362,-0.00015108,0.00000344,0.000006
 44,0.00002557,-0.00291058,-0.00878395,0.00187882,-0.02013285,-0.088347
 63,0.07980827,-0.10214583,-0.00581970,0.01302613,-0.10142864,0.0107721
 0,-0.01128835,-0.08748697,-0.00304858,0.00076030,-0.08809568,0.0024335
 5,0.00041681,-0.00331261,0.03480853,0.01283371,0.00320818,-0.00342838,
 -0.00496834,-0.03272674,0.00431835,-0.00540865,0.00341287,-0.00233016,
 -0.03377356,-0.00078006,-0.00261307,-0.00016212,0.00460532,-0.01951015
 ,-0.00725716,-0.02297824,-0.02390078,0.02388828,-0.00255207,-0.0006994
 1,0.00022347,-0.01176856,0.00311525,-0.00282124,-0.01621062,0.00369870
 ,-0.00555494,-0.00012192,0.00214961,0.01053191,0.00078063,0.00096622,0
 .01891425,-0.00166285,-0.00482611,0.00338557,0.00200906,-0.00004676,-0
 .00085037,0.00135360,0.00067867,0.00011901,0.00005164,0.00059839,-0.00
 065660,0.00080758,0.00142800,-0.00033769,0.00087172,-0.00015781,0.0005
 2138,-0.00708840,0.00189364,-0.00230800,0.00114873,-0.00067116,-0.0001
 9733,0.00169237,-0.00113296,0.00059982,0.00168766,0.00067660,0.0010046
 8,0.00087544,-0.00008841,0.00073077,0.46242418,-0.00986639,-0.09242475
 ,0.01051433,0.00344931,-0.09023000,0.00358105,0.00178573,-0.08826502,-
 0.00373689,-0.00613459,-0.11169279,-0.00978647,0.00902608,-0.01641383,
 -0.00422939,-0.02533603,-0.02643674,0.02095767,-0.01669488,0.00699771,
 -0.00880711,0.00137680,-0.00154307,-0.00760052,0.00097844,-0.01293239,
 -0.00291767,0.00542270,-0.02936042,-0.01001323,-0.00111951,0.00018536,
 -0.00038706,0.00149685,0.00071716,-0.00150736,-0.00326669,-0.00107465,
 -0.00130026,0.03402496,-0.00656129,0.01055620,0.00157444,0.00496967,0.
 02786154,-0.00210801,-0.00423918,-0.02861111,-0.00300111,-0.00259084,0
 .00173907,0.00102051,0.00090821,-0.00010052,0.00011626,-0.00007203,-0.
 00080563,0.00015864,0.00080744,0.00005953,0.00395435,-0.00680694,-0.00
 062723,0.00011431,0.00257694,-0.00001458,0.00245421,0.00128704,0.00200
 897,-0.00040648,0.00085617,-0.00015574,-0.00102111,0.00085501,0.001090
 84,-0.00002879,0.00051840,0.00071960,0.00031665,-0.00015114,-0.0002281
 8,0.00337391,0.46983934,0.01118158,0.00330133,-0.09823689,-0.00519929,
 0.00573512,-0.09186618,0.00969285,-0.00092220,-0.10636827,-0.00355532,
 -0.00604204,-0.09076728,0.00208524,0.00640267,0.00213503,-0.00272010,0
 .00226110,0.00180540,0.01298568,-0.00646512,0.00687160,-0.00749686,-0.
 00172465,-0.01962843,0.00648803,-0.03627764,-0.01220832,-0.00326746,0.
 01483679,0.00272392,-0.00276395,-0.00480593,0.00279512,0.02501780,0.02
 389061,-0.02319328,-0.03581721,0.00812710,-0.01135276,0.00580526,-0.00
 167085,-0.00036579,0.00029647,-0.00564521,-0.02673288,-0.00148992,-0.0
 0195978,-0.01903812,0.00285047,0.00214315,-0.00142270,-0.00005957,-0.0
 0106541,-0.00010872,-0.00063707,-0.00004910,0.00034026,0.00022066,-0.0
 0010665,-0.00005186,-0.00062468,-0.00175574,0.00046818,-0.00079448,-0.
 00061607,0.00017738,-0.00136653,0.00113188,0.00025437,0.00013346,0.000
 85364,-0.00002483,0.00045192,-0.00043603,0.00034195,0.00078133,-0.0003
 4866,0.00113045,0.00078553,0.00061738,0.00113443,-0.00974553,0.0015396
 9,0.47950322,-0.00107501,-0.00061196,0.00129609,0.00095299,-0.00046678
 ,-0.00145125,0.00146361,-0.00097430,-0.02966001,-0.00048463,0.00096383
 ,-0.00012380,-0.00015114,0.00016631,0.00002856,0.00011581,0.00009776,-
 0.00007608,0.00000811,0.00011205,-0.00010032,-0.04551304,0.00027008,0.
 01284791,0.00008009,-0.00024411,-0.00010052,0.00002046,-0.00007876,-0.
 00001419,0.00038976,-0.00006760,0.00013850,0.00023848,0.00003127,-0.00
 008166,-0.00062790,0.00010399,-0.00020469,-0.00002819,0.00003020,0.000
 02394,0.00143087,-0.00014700,0.00012488,0.00103937,0.00068273,0.000448
 44,-0.00005435,-0.00004131,0.00005981,0.00001762,-0.00002417,0.0000845
 5,0.00000219,-0.00002359,0.00002271,0.00000411,-0.00001877,-0.00001480
 ,-0.00002431,0.00006636,-0.00002401,-0.00002043,-0.00003353,-0.0000115
 0,0.00015206,0.00002599,0.00010346,0.00004145,-0.00000951,0.00017358,0
 .00006968,0.00004852,-0.00005227,-0.00026465,-0.00143993,0.02231024,-0
 .00139220,0.00119473,0.00736760,-0.00656982,-0.00166054,-0.00323831,0.
 05017902,-0.00045648,-0.00027787,0.00047149,0.00041628,-0.00011227,-0.
 00056053,0.00085380,-0.00237635,-0.00918977,0.00014159,0.00038072,0.00
 027266,0.00017277,-0.00046021,-0.00000475,0.00009473,-0.00001342,-0.00
 016831,-0.00000406,0.00003286,-0.00003633,0.00004609,-0.04390670,-0.00
 665200,0.00000607,-0.00002845,-0.00006279,-0.00002202,-0.00000965,-0.0
 0000325,0.00027613,-0.00015515,0.00011615,0.00018691,0.00005669,-0.000
 00550,-0.00021143,0.00005354,-0.00007682,-0.00003155,0.00001112,0.0000
 1159,0.00066147,0.00036888,-0.00002511,-0.00011500,0.00024509,0.000039
 79,-0.00002016,-0.00001861,0.00002249,0.00000918,-0.00001214,0.0000275
 5,-0.00000073,-0.00000889,0.00000589,-0.00001081,0.00002824,0.00012372
 ,-0.00002547,0.00000288,0.00003720,-0.00008375,0.00015964,0.00015386,-
 0.00007912,-0.00008573,-0.00014751,0.00001440,0.00000999,-0.00020387,-
 0.00004470,-0.00003924,0.00009378,-0.00074431,-0.00026151,-0.02072150,
 -0.00043980,0.00206379,0.02896832,-0.00263809,0.00027663,-0.00094938,0
 .00204805,0.04407610,0.00012519,-0.00039703,0.00022329,0.00050343,-0.0
 0024063,-0.00053344,0.00179880,-0.00015757,-0.01194307,-0.00008170,0.0
 0041260,0.00007039,0.00008491,-0.00028104,0.00005589,0.00000385,-0.000
 06360,0.00005711,-0.00002069,0.00006575,-0.00004671,0.01049948,-0.0074
 4576,-0.31687847,0.00000176,-0.00007758,-0.00004636,-0.00000584,-0.000
 04058,-0.00001287,-0.00044395,0.00008628,-0.00015570,-0.00017097,0.000
 04325,-0.00007006,-0.00025212,0.00001984,-0.00003912,-0.00001112,0.000
 00293,0.00000192,0.00030641,-0.00014119,0.00074467,0.00008110,0.000249
 52,0.00042087,-0.00003264,-0.00002476,0.00001758,0.00002288,-0.0000086
 6,0.00001762,-0.00000111,-0.00001479,0.00000658,-0.00002336,0.00003556
 ,-0.00004138,-0.00000110,0.00004461,-0.00002862,0.00004793,-0.00010545
 ,-0.00006595,-0.00002426,-0.00001753,-0.00007431,0.00002275,0.00003427
 ,-0.00019299,-0.00002639,0.00001540,0.00006112,-0.00085282,0.00098350,
 -0.00636917,-0.00004736,-0.00164073,-0.00828996,-0.00162619,0.00020046
 ,0.00168502,-0.00987685,0.00846293,0.34142611\\-0.00000269,0.00000036,
 -0.00000150,-0.00000055,0.00000159,0.00000653,0.00000588,-0.00000240,-
 0.00000141,-0.00000480,0.00000122,-0.00000368,-0.00000392,-0.00000112,
 -0.00000605,-0.00000035,0.00000021,0.00000067,-0.00000099,0.00000265,0
 .00000854,0.00000749,-0.00000424,-0.00000540,-0.00000755,0.00000206,-0
 .00000158,-0.00000282,0.00000066,-0.00000053,-0.00000164,-0.00000081,-
 0.00000521,-0.00000641,0.00000128,-0.00000161,-0.00000504,0.00000371,0
 .00000601,0.00000090,0.00000319,0.00000885,0.00000427,-0.00000174,0.00
 000027,0.00000612,0.00000067,0.00000322,-0.00000101,0.00000489,0.00001
 194,0.00000394,0.00000174,0.00000885,-0.00000307,0.00000411,0.00000638
 ,-0.00000148,0.00000211,0.00000468,-0.00000061,-0.00000020,-0.00000092
 ,0.00000373,-0.00000094,0.00000255,-0.00000641,-0.00000151,-0.00000871
 ,-0.00000028,-0.00000246,-0.00000745,-0.00000431,-0.00000265,-0.000009
 72,0.00000470,-0.00000385,-0.00000757,0.00000701,-0.00000323,-0.000003
 58,-0.00000076,-0.00000062,-0.00000005,0.00001063,-0.00000469,-0.00000
 353\\\@
 The archive entry for this job was punched.


 I CLAIM NOT TO HAVE CONTROLLED EVENTS,
 BUT CONFESS PLAINLY THAT EVENTS HAVE CONTROLLED ME.

                                         A. LINCOLN
 Job cpu time:       0 days  7 hours 13 minutes 55.6 seconds.
 Elapsed time:       0 days  0 hours  4 minutes 44.9 seconds.
 File lengths (MBytes):  RWF=    346 Int=      0 D2E=      0 Chk=     41 Scr=      1
 Normal termination of Gaussian 16 at Tue Dec 10 18:55:14 2024.
115814.93user 233.18system 21:31.43elapsed 8985%CPU (0avgtext+0avgdata 23681372maxresident)k
0inputs+1296360outputs (8202major+3801285minor)pagefaults 0swaps
