 Entering Gaussian System, Link 0=g16
 Initial command:
 /common/software/install/migrated/gaussian/g16.c01.avx2/g16/l1.exe "/tmp/quach062/27944079/Gau-657332.inp" -scrdir="/tmp/quach062/27944079/"
 Entering Link 1 = /common/software/install/migrated/gaussian/g16.c01.avx2/g16/l1.exe PID=    657333.
  
 Copyright (c) 1988-2019, Gaussian, Inc.  All Rights Reserved.
  
 This is part of the Gaussian(R) 16 program.  It is based on
 the Gaussian(R) 09 system (copyright 2009, Gaussian, Inc.),
 the Gaussian(R) 03 system (copyright 2003, Gaussian, Inc.),
 the Gaussian(R) 98 system (copyright 1998, Gaussian, Inc.),
 the Gaussian(R) 94 system (copyright 1995, Gaussian, Inc.),
 the Gaussian 92(TM) system (copyright 1992, Gaussian, Inc.),
 the Gaussian 90(TM) system (copyright 1990, Gaussian, Inc.),
 the Gaussian 88(TM) system (copyright 1988, Gaussian, Inc.),
 the Gaussian 86(TM) system (copyright 1986, Carnegie Mellon
 University), and the Gaussian 82(TM) system (copyright 1983,
 Carnegie Mellon University). Gaussian is a federally registered
 trademark of Gaussian, Inc.
  
 This software contains proprietary and confidential information,
 including trade secrets, belonging to Gaussian, Inc.
  
 This software is provided under written license and may be
 used, copied, transmitted, or stored only in accord with that
 written license.
  
 The following legend is applicable only to US Government
 contracts under FAR:
  
                    RESTRICTED RIGHTS LEGEND
  
 Use, reproduction and disclosure by the US Government is
 subject to restrictions as set forth in subparagraphs (a)
 and (c) of the Commercial Computer Software - Restricted
 Rights clause in FAR 52.227-19.
  
 Gaussian, Inc.
 340 Quinnipiac St., Bldg. 40, Wallingford CT 06492
  
  
 ---------------------------------------------------------------
 Warning -- This program may not be used in any manner that
 competes with the business of Gaussian, Inc. or will provide
 assistance to any competitor of Gaussian, Inc.  The licensee
 of this program is prohibited from giving any competitor of
 Gaussian, Inc. access to this program.  By using this program,
 the user acknowledges that Gaussian, Inc. is engaged in the
 business of creating and licensing software in the field of
 computational chemistry and represents and warrants to the
 licensee that it is not a competitor of Gaussian, Inc. and that
 it will not use this program in any manner prohibited above.
 ---------------------------------------------------------------
  

 Cite this work as:
 Gaussian 16, Revision C.01,
 M. J. Frisch, G. W. Trucks, H. B. Schlegel, G. E. Scuseria, 
 M. A. Robb, J. R. Cheeseman, G. Scalmani, V. Barone, 
 G. A. Petersson, H. Nakatsuji, X. Li, M. Caricato, A. V. Marenich, 
 J. Bloino, B. G. Janesko, R. Gomperts, B. Mennucci, H. P. Hratchian, 
 J. V. Ortiz, A. F. Izmaylov, J. L. Sonnenberg, D. Williams-Young, 
 F. Ding, F. Lipparini, F. Egidi, J. Goings, B. Peng, A. Petrone, 
 T. Henderson, D. Ranasinghe, V. G. Zakrzewski, J. Gao, N. Rega, 
 G. Zheng, W. Liang, M. Hada, M. Ehara, K. Toyota, R. Fukuda, 
 J. Hasegawa, M. Ishida, T. Nakajima, Y. Honda, O. Kitao, H. Nakai, 
 T. Vreven, K. Throssell, J. A. Montgomery, Jr., J. E. Peralta, 
 F. Ogliaro, M. J. Bearpark, J. J. Heyd, E. N. Brothers, K. N. Kudin, 
 V. N. Staroverov, T. A. Keith, R. Kobayashi, J. Normand, 
 K. Raghavachari, A. P. Rendell, J. C. Burant, S. S. Iyengar, 
 J. Tomasi, M. Cossi, J. M. Millam, M. Klene, C. Adamo, R. Cammi, 
 J. W. Ochterski, R. L. Martin, K. Morokuma, O. Farkas, 
 J. B. Foresman, and D. J. Fox, Gaussian, Inc., Wallingford CT, 2019.
 
 ******************************************
 Gaussian 16:  ES64L-G16RevC.01  3-Jul-2019
                10-Dec-2024 
 ******************************************
 %chk=2_p1.chk
 %lindaworkers=in-cn0088
 %nprocshared=128
 Will use up to  128 processors via shared memory.
 %mem=59800MB
 SetLPE:  input flags=" -workerwait 900 -opt "Tsnet.Node.lindarsharg: ssh " "
 SetLPE:    new flags=" -workerwait 900 -opt "Tsnet.Node.lindarsharg: ssh " -opt 'Tsnet.Node.lindarsharg: ssh'  -nodelist 'in-cn0088' -env GAUSS_MDEF=7838105600 -env GAUSS_EXEDIR="/common/software/install/migrated/gaussian/g16.c01.avx2/g16/bsd:/common/software/install/migrated/gaussian/g16.c01.avx2/g16/local:/common/software/install/migrated/gaussian/g16.c01.avx2/g16/extras:/common/software/install/migrated/gaussian/g16.c01.avx2/g16""
 Will use up to    1 processors via Linda.
 ----------------------------------------------------------------------
 # opt=calcfc freq 6-311++g(d,p)/auto scrf=(smd,solvent=n,n-dimethylfor
 mamide) nosymm integral=grid=ultrafine m06l scf=(tight,intrep,xqc)
 ----------------------------------------------------------------------
 1/10=4,18=20,19=15,26=6,38=1/1,3;
 2/9=110,12=2,15=1,17=6,18=5,40=1/2;
 3/5=4,6=6,7=1111,11=2,25=1,30=1,70=32201,71=2,72=148,74=-53,75=-5,82=28,140=1/1,2,3;
 4//1;
 5/5=2,8=3,13=1,17=20,32=2,38=5,53=148/2,8;
 8/6=4,10=90,11=11/1;
 11/6=1,8=1,9=11,15=111,16=1,31=1/1,2,10;
 10/6=1,13=1,31=1/2;
 6/7=2,8=2,9=2,10=2,28=1/1;
 7/10=1,25=1,30=1/1,2,3,16;
 1/10=4,18=20,19=15,26=6/3(2);
 2/9=110,15=1/2;
 99//99;
 2/9=110,15=1/2;
 3/5=4,6=6,7=1111,11=2,25=1,30=1,70=32205,71=1,72=148,74=-53,75=-5,82=28/1,2,3;
 4/5=5,16=3,69=1/1;
 5/5=2,8=3,13=1,17=20,32=2,38=5,53=148/2,8;
 7/30=1/1,2,3,16;
 1/18=20,19=15,26=6/3(-5);
 2/9=110,15=1/2;
 6/7=2,8=2,9=2,10=2,19=2,28=1/1;
 99/9=1/99;
 ----------------
 3D Atomistic (5)
 ----------------
 Symbolic Z-matrix:
 Charge =  1 Multiplicity = 1
 C                     12.15782   9.44537   21.33075 
 C                     11.43553   11.7633   21.53514 
 C                     13.80673   11.21077   21.69712 
 C                     12.2866   10.59592   23.49952 
 H                     13.04997   9.90201   23.85004 
 H                     11.30124   10.18624   23.72687 
 H                     12.42327   11.5818   23.94136 
 H                     12.27588   9.60559   20.25629 
 H                     11.13837   9.1317    21.55961 
 H                     12.87099   8.70394   21.6921 
 H                     11.55869   11.90682   20.48198 
 H                     10.44185   11.42015   21.73454 
 H                     13.98451   12.14433   22.2312 
 H                     13.87684   11.35292   20.6163 
 H                     14.51089   10.45048   22.03819 
 N                     12.42071   10.74635   22.01845 
 H                     11.60144   12.69023   22.04323 
 

 GradGradGradGradGradGradGradGradGradGradGradGradGradGradGradGradGradGrad
 Berny optimization.
 Initialization pass.
                           ----------------------------
                           !    Initial Parameters    !
                           ! (Angstroms and Degrees)  !
 --------------------------                            --------------------------
 ! Name  Definition              Value          Derivative Info.                !
 --------------------------------------------------------------------------------
 ! R1    R(1,8)                  1.0927         calculate D2E/DX2 analytically  !
 ! R2    R(1,9)                  1.0909         calculate D2E/DX2 analytically  !
 ! R3    R(1,10)                 1.0904         calculate D2E/DX2 analytically  !
 ! R4    R(1,16)                 1.4949         calculate D2E/DX2 analytically  !
 ! R5    R(2,11)                 1.07           calculate D2E/DX2 analytically  !
 ! R6    R(2,12)                 1.07           calculate D2E/DX2 analytically  !
 ! R7    R(2,16)                 1.4961         calculate D2E/DX2 analytically  !
 ! R8    R(2,17)                 1.07           calculate D2E/DX2 analytically  !
 ! R9    R(3,13)                 1.0901         calculate D2E/DX2 analytically  !
 ! R10   R(3,14)                 1.0924         calculate D2E/DX2 analytically  !
 ! R11   R(3,15)                 1.091          calculate D2E/DX2 analytically  !
 ! R12   R(3,16)                 1.4967         calculate D2E/DX2 analytically  !
 ! R13   R(4,5)                  1.0895         calculate D2E/DX2 analytically  !
 ! R14   R(4,6)                  1.0911         calculate D2E/DX2 analytically  !
 ! R15   R(4,7)                  1.089          calculate D2E/DX2 analytically  !
 ! R16   R(4,16)                 1.4947         calculate D2E/DX2 analytically  !
 ! A1    A(8,1,9)              110.4514         calculate D2E/DX2 analytically  !
 ! A2    A(8,1,10)             110.787          calculate D2E/DX2 analytically  !
 ! A3    A(8,1,16)             107.803          calculate D2E/DX2 analytically  !
 ! A4    A(9,1,10)             110.2539         calculate D2E/DX2 analytically  !
 ! A5    A(9,1,16)             108.5467         calculate D2E/DX2 analytically  !
 ! A6    A(10,1,16)            108.9232         calculate D2E/DX2 analytically  !
 ! A7    A(11,2,12)            109.4712         calculate D2E/DX2 analytically  !
 ! A8    A(11,2,16)            109.4712         calculate D2E/DX2 analytically  !
 ! A9    A(11,2,17)            109.4712         calculate D2E/DX2 analytically  !
 ! A10   A(12,2,16)            109.4712         calculate D2E/DX2 analytically  !
 ! A11   A(12,2,17)            109.4712         calculate D2E/DX2 analytically  !
 ! A12   A(16,2,17)            109.4712         calculate D2E/DX2 analytically  !
 ! A13   A(13,3,14)            111.274          calculate D2E/DX2 analytically  !
 ! A14   A(13,3,15)            109.7774         calculate D2E/DX2 analytically  !
 ! A15   A(13,3,16)            108.1542         calculate D2E/DX2 analytically  !
 ! A16   A(14,3,15)            111.0136         calculate D2E/DX2 analytically  !
 ! A17   A(14,3,16)            108.1952         calculate D2E/DX2 analytically  !
 ! A18   A(15,3,16)            108.3222         calculate D2E/DX2 analytically  !
 ! A19   A(5,4,6)              109.0609         calculate D2E/DX2 analytically  !
 ! A20   A(5,4,7)              110.9851         calculate D2E/DX2 analytically  !
 ! A21   A(5,4,16)             108.6632         calculate D2E/DX2 analytically  !
 ! A22   A(6,4,7)              111.6379         calculate D2E/DX2 analytically  !
 ! A23   A(6,4,16)             108.9827         calculate D2E/DX2 analytically  !
 ! A24   A(7,4,16)             107.4371         calculate D2E/DX2 analytically  !
 ! A25   A(1,16,2)             109.0955         calculate D2E/DX2 analytically  !
 ! A26   A(1,16,3)             109.5208         calculate D2E/DX2 analytically  !
 ! A27   A(1,16,4)             110.6387         calculate D2E/DX2 analytically  !
 ! A28   A(2,16,3)             109.2408         calculate D2E/DX2 analytically  !
 ! A29   A(2,16,4)             109.2337         calculate D2E/DX2 analytically  !
 ! A30   A(3,16,4)             109.0907         calculate D2E/DX2 analytically  !
 ! D1    D(8,1,16,2)            60.2702         calculate D2E/DX2 analytically  !
 ! D2    D(8,1,16,3)           -59.25           calculate D2E/DX2 analytically  !
 ! D3    D(8,1,16,4)          -179.5375         calculate D2E/DX2 analytically  !
 ! D4    D(9,1,16,2)           -59.3881         calculate D2E/DX2 analytically  !
 ! D5    D(9,1,16,3)          -178.9083         calculate D2E/DX2 analytically  !
 ! D6    D(9,1,16,4)            60.8042         calculate D2E/DX2 analytically  !
 ! D7    D(10,1,16,2)         -179.4561         calculate D2E/DX2 analytically  !
 ! D8    D(10,1,16,3)           61.0237         calculate D2E/DX2 analytically  !
 ! D9    D(10,1,16,4)          -59.2638         calculate D2E/DX2 analytically  !
 ! D10   D(11,2,16,1)          -61.518          calculate D2E/DX2 analytically  !
 ! D11   D(11,2,16,3)           58.1755         calculate D2E/DX2 analytically  !
 ! D12   D(11,2,16,4)          177.4287         calculate D2E/DX2 analytically  !
 ! D13   D(12,2,16,1)           58.482          calculate D2E/DX2 analytically  !
 ! D14   D(12,2,16,3)          178.1755         calculate D2E/DX2 analytically  !
 ! D15   D(12,2,16,4)          -62.5713         calculate D2E/DX2 analytically  !
 ! D16   D(17,2,16,1)          178.482          calculate D2E/DX2 analytically  !
 ! D17   D(17,2,16,3)          -61.8245         calculate D2E/DX2 analytically  !
 ! D18   D(17,2,16,4)           57.4287         calculate D2E/DX2 analytically  !
 ! D19   D(13,3,16,1)         -178.4195         calculate D2E/DX2 analytically  !
 ! D20   D(13,3,16,2)           62.1497         calculate D2E/DX2 analytically  !
 ! D21   D(13,3,16,4)          -57.1921         calculate D2E/DX2 analytically  !
 ! D22   D(14,3,16,1)           60.936          calculate D2E/DX2 analytically  !
 ! D23   D(14,3,16,2)          -58.4948         calculate D2E/DX2 analytically  !
 ! D24   D(14,3,16,4)         -177.8365         calculate D2E/DX2 analytically  !
 ! D25   D(15,3,16,1)          -59.4927         calculate D2E/DX2 analytically  !
 ! D26   D(15,3,16,2)         -178.9235         calculate D2E/DX2 analytically  !
 ! D27   D(15,3,16,4)           61.7347         calculate D2E/DX2 analytically  !
 ! D28   D(5,4,16,1)            63.4819         calculate D2E/DX2 analytically  !
 ! D29   D(5,4,16,2)          -176.4085         calculate D2E/DX2 analytically  !
 ! D30   D(5,4,16,3)           -57.0623         calculate D2E/DX2 analytically  !
 ! D31   D(6,4,16,1)           -55.2499         calculate D2E/DX2 analytically  !
 ! D32   D(6,4,16,2)            64.8597         calculate D2E/DX2 analytically  !
 ! D33   D(6,4,16,3)          -175.7941         calculate D2E/DX2 analytically  !
 ! D34   D(7,4,16,1)          -176.3659         calculate D2E/DX2 analytically  !
 ! D35   D(7,4,16,2)           -56.2563         calculate D2E/DX2 analytically  !
 ! D36   D(7,4,16,3)            63.0899         calculate D2E/DX2 analytically  !
 --------------------------------------------------------------------------------
 Trust Radius=3.00D-01 FncErr=5.00D-06 GrdErr=5.00D-06 EigMax=2.50D+02 EigMin=1.00D-04
 Number of steps in this run=     92 maximum allowed number of steps=    102.
 GradGradGradGradGradGradGradGradGradGradGradGradGradGradGradGradGradGrad

                          Input orientation:                          
 ---------------------------------------------------------------------
 Center     Atomic      Atomic             Coordinates (Angstroms)
 Number     Number       Type             X           Y           Z
 ---------------------------------------------------------------------
      1          6           0       12.157818    9.445369   21.330749
      2          6           0       11.435527   11.763299   21.535138
      3          6           0       13.806726   11.210766   21.697116
      4          6           0       12.286601   10.595922   23.499521
      5          1           0       13.049970    9.902014   23.850036
      6          1           0       11.301235   10.186236   23.726866
      7          1           0       12.423272   11.581798   23.941357
      8          1           0       12.275879    9.605587   20.256289
      9          1           0       11.138370    9.131698   21.559614
     10          1           0       12.870990    8.703938   21.692103
     11          1           0       11.558694   11.906820   20.481985
     12          1           0       10.441854   11.420146   21.734535
     13          1           0       13.984514   12.144330   22.231203
     14          1           0       13.876844   11.352924   20.616297
     15          1           0       14.510885   10.450479   22.038193
     16          7           0       12.420714   10.746354   22.018452
     17          1           0       11.601442   12.690235   22.043235
 ---------------------------------------------------------------------
                    Distance matrix (angstroms):
                    1          2          3          4          5
     1  C    0.000000
     2  C    2.436448   0.000000
     3  C    2.443307   2.440105   0.000000
     4  C    2.458440   2.438421   2.436694   0.000000
     5  H    2.711322   3.380763   2.630699   1.089542   0.000000
     6  H    2.650282   2.703485   3.383346   1.091089   1.775958
     7  H    3.383795   2.607388   2.662373   1.088967   1.795206
     8  H    1.092736   2.645254   2.645009   3.391081   3.688103
     9  H    1.090891   2.648438   3.385492   2.688052   3.081174
    10  H    1.090372   3.383028   2.675783   2.681021   2.474691
    11  H    2.671721   1.070000   2.648525   3.369544   4.193676
    12  H    2.647134   1.070000   3.371588   2.682837   3.685422
    13  H    3.381128   2.669649   1.090137   2.624711   2.919242
    14  H    2.665381   2.640588   1.092380   3.378595   3.639496
    15  H    2.654741   3.381477   1.090967   2.665347   2.391205
    16  N    1.494862   1.496116   1.496651   1.494718   2.112717
    17  H    3.368433   1.070000   2.678041   2.641279   3.624491
                    6          7          8          9         10
     6  H    0.000000
     7  H    1.803487   0.000000
     8  H    3.651300   4.184120   0.000000
     9  H    2.415690   3.650570   1.793643   0.000000
    10  H    2.966749   3.679901   1.796856   1.789554   0.000000
    11  H    3.681841   3.580557   2.420944   3.006536   3.666737
    12  H    2.496087   2.970221   2.973463   2.398484   3.644213
    13  H    3.642956   2.382970   3.642106   4.198514   3.656072
    14  H    4.203637   3.636108   2.397057   3.650059   3.030879
    15  H    3.636385   3.043032   2.980650   3.652681   2.420628
    16  N    2.117934   2.096554   2.104173   2.112357   2.116770
    17  H    3.032284   2.346679   3.628098   3.620982   4.198286
                   11         12         13         14         15
    11  H    0.000000
    12  H    1.747303   0.000000
    13  H    3.000130   3.649872   0.000000
    14  H    2.387187   3.613051   1.801621   0.000000
    15  H    3.641174   4.193981   1.784223   1.799501   0.000000
    16  N    2.109619   2.109619   2.108334   2.110517   2.111101
    17  H    1.747303   1.747303   2.452014   3.000334   3.671701
                   16         17
    16  N    0.000000
    17  H    2.109619   0.000000
 Symmetry turned off by external request.
 Stoichiometry    C4H12N(1+)
 Framework group  C1[X(C4H12N)]
 Deg. of freedom    45
 Full point group                 C1      NOp   1
 Rotational constants (GHZ):           4.7296842           4.6981417           4.6801937
 Standard basis: 6-311++G(d,p) (5D, 7F)
   194 basis functions,   288 primitive gaussians,   199 cartesian basis functions
    21 alpha electrons       21 beta electrons
       nuclear repulsion energy       214.8852445228 Hartrees.
 NAtoms=   17 NActive=   17 NUniq=   17 SFac= 1.00D+00 NAtFMM=   60 NAOKFM=F Big=F
 Integral buffers will be    131072 words long.
 Raffenetti 2 integral format.
 Two-electron integral symmetry is turned off.
 Standard density basis: Auto (5D, 7F)
   908 Density fitting functions
 Force inversion solution in PCM.
 ------------------------------------------------------------------------------
 Polarizable Continuum Model (PCM)
 =================================
 Model                : PCM.
 Atomic radii         : SMD-Coulomb.
 Polarization charges : Total charges.
 Charge compensation  : None.
 Solution method      : Matrix inversion.
 Cavity type          : VdW (van der Waals Surface) (Alpha=1.000).
 Cavity algorithm     : GePol (No added spheres)
                        Default sphere list used, NSphG=   17.
                        Lebedev-Laikov grids with approx.  5.0 points / Ang**2.
                        Smoothing algorithm: York/Karplus (Gamma=1.0000).
                        Polarization charges: spherical gaussians, with
                                              point-specific exponents (IZeta= 3).
                        Self-potential: point-specific (ISelfS= 7).
                        Self-field    : sphere-specific E.n sum rule (ISelfD= 2).
 1st derivatives      : Analytical E(r).r(x)/FMM algorithm (CHGder, D1EAlg=3).
                        Cavity 1st derivative terms included.
 2nd derivatives      : Analytical E(r).r(xy)/FMM algorithm (CHGder, D2EAlg=3).
                        Cavity 2nd derivative terms included.
 Solvent              : n,n-DiMethylFormamide, Eps=  37.219000 Eps(inf)=   2.046330
 ------------------------------------------------------------------------------
 Spheres list:
 ISph  on   Nord     Re0    Alpha      Xe            Ye            Ze
    1   C      1    1.8500  1.000     12.157818      9.445369     21.330749
    2   C      2    1.8500  1.000     11.435527     11.763299     21.535138
    3   C      3    1.8500  1.000     13.806726     11.210766     21.697116
    4   C      4    1.8500  1.000     12.286601     10.595922     23.499521
    5   H      5    1.2000  1.000     13.049970      9.902014     23.850036
    6   H      6    1.2000  1.000     11.301235     10.186236     23.726866
    7   H      7    1.2000  1.000     12.423272     11.581798     23.941357
    8   H      8    1.2000  1.000     12.275879      9.605587     20.256289
    9   H      9    1.2000  1.000     11.138370      9.131698     21.559614
   10   H     10    1.2000  1.000     12.870990      8.703938     21.692103
   11   H     11    1.2000  1.000     11.558694     11.906820     20.481985
   12   H     12    1.2000  1.000     10.441854     11.420146     21.734535
   13   H     13    1.2000  1.000     13.984514     12.144330     22.231203
   14   H     14    1.2000  1.000     13.876844     11.352924     20.616297
   15   H     15    1.2000  1.000     14.510885     10.450479     22.038193
   16   N     16    1.8900  1.000     12.420714     10.746354     22.018452
   17   H     17    1.2000  1.000     11.601442     12.690235     22.043235
 ------------------------------------------------------------------------------
 ------------------------------------------------------------------------------
 Atomic radii for non-electrostatic terms: SMD-CDS.
 ------------------------------------------------------------------------------
 Nuclear repulsion after PCM non-electrostatic terms =      214.8850469258 Hartrees.
 One-electron integrals computed using PRISM.
 NBasis=   194 RedAO= T EigKep=  1.40D-04  NBF=   194
 NBsUse=   194 1.00D-06 EigRej= -1.00D+00 NBFU=   194
 NBasis=      194 NBas6D=      199 NTT=       18915   NTT6D=    19900
 NDBShl=      154 NDBF=        908 NDBF6D=     1036  NNucDB=        0
 IDenFi=        2 ISolve=        0 FullAP=F BlkAPC=T NucTyp=        0
 TolInv= 1.00D-06 TolIt=  1.00D-10 IR12=0.
 FoFCou: FMM=F IPFlag=           0 FMFlag=           0 FMFlg1=           0
         NFxFlg=           0 DoJE=F BraDBF=T KetDBF=T FulRan=T
         wScrn=  0.000000 ICntrl=       600 IOpCl=  3 I1Cent=           6 NGrid=           0
         NMat0=    1 NMatS0=   1036 NMatT0=    0 NMatD0=    1 NMtDS0=    0 NMtDT0=    0
 Symmetry not used in FoFCou.
 DBF EigKep=  1.00D-06 EigRej=  9.73D-07
 NDBF=    908  NBFD=   908
 NRank=   868 NBFDU=   868
 S*AI*S=  11.6039384167    
 ExpMin= 3.60D-02 ExpMax= 6.29D+03 ExpMxC= 9.49D+02 IAcc=3 IRadAn=         5 AccDes= 0.00D+00
 Harris functional with IExCor= 1009 and IRadAn=       5 diagonalized for initial guess.
 HarFok:  IExCor= 1009 AccDes= 0.00D+00 IRadAn=         5 IDoV= 1 UseB2=F ITyADJ=14
 ICtDFT=  3500011 ScaDFX=  1.000000  1.000000  1.000000  1.000000
 FoFCou: FMM=F IPFlag=           0 FMFlag=      100000 FMFlg1=           0
         NFxFlg=           0 DoJE=T BraDBF=F KetDBF=T FulRan=T
         wScrn=  0.000000 ICntrl=       500 IOpCl=  0 I1Cent=   200000004 NGrid=           0
         NMat0=    1 NMatS0=      1 NMatT0=    0 NMatD0=    1 NMtDS0=    0 NMtDT0=    0
 Symmetry not used in FoFCou.
 Requested convergence on RMS density matrix=1.00D-08 within  32 cycles.
 Requested convergence on MAX density matrix=1.00D-06.
 Requested convergence on             energy=1.00D-06.
 No special actions if energy rises.
 FoFCou: FMM=F IPFlag=           0 FMFlag=      100000 FMFlg1=           0
         NFxFlg=           0 DoJE=T BraDBF=T KetDBF=F FulRan=T
         wScrn=  0.000000 ICntrl=       500 IOpCl=  0 I1Cent=           5 NGrid=           0
         NMat0=    1 NMatS0=      1 NMatT0=    0 NMatD0=    1 NMtDS0=    0 NMtDT0=    0
 Symmetry not used in FoFCou.
 Inv3:  Mode=1 IEnd=     3790128.
 Iteration    1 A*A^-1 deviation from unit magnitude is 3.55D-15 for    542.
 Iteration    1 A*A^-1 deviation from orthogonality  is 2.13D-15 for    661     25.
 Iteration    1 A^-1*A deviation from unit magnitude is 3.11D-15 for    371.
 Iteration    1 A^-1*A deviation from orthogonality  is 2.06D-15 for    806    191.
 Error on total polarization charges =  0.02991
 SCF Done:  E(RM06L) =  -214.273433937     A.U. after   11 cycles
            NFock= 11  Conv=0.34D-08     -V/T= 2.0049
 SMD-CDS (non-electrostatic) energy       (kcal/mol) =      -0.12
 (included in total energy above)
 QCSCF skips out because SCF is already converged.
 DoSCS=F DFT=T ScalE2(SS,OS)=  1.000000  1.000000
 Range of M.O.s used for correlation:     1   194
 NBasis=   194 NAE=    21 NBE=    21 NFC=     0 NFV=     0
 NROrb=    194 NOA=    21 NOB=    21 NVA=   173 NVB=   173

 **** Warning!!: The largest alpha MO coefficient is  0.39437118D+02

 Symmetrizing basis deriv contribution to polar:
 IMax=3 JMax=2 DiffMx= 0.00D+00
 G2DrvN: will do    18 centers at a time, making    1 passes.
 Calling FoFCou, ICntrl=  3507 FMM=F I1Cent=   4 AccDes= 0.00D+00.
 NEqPCM:  Using equilibrium solvation (IEInf=0, Eps=  37.2190, EpsInf=   2.0463)
 G2PCM: DoFxE=T DoFxN=T DoGrad=T DoDP/DQ/DG/TGxP=FFFF NFrqRd=   0 IEInf=0 SqF1=F DoCFld=F IF1Alg=4.
 G2DrvN: will do    18 centers at a time, making    1 passes.
 Calling FoFCou, ICntrl=  3507 FMM=F I1Cent=1004 AccDes= 0.00D+00.
 End of G2Drv F.D. properties file   721 does not exist.
 End of G2Drv F.D. properties file   722 does not exist.
 End of G2Drv F.D. properties file   788 does not exist.
          IDoAtm=11111111111111111
 NEqPCM:  Using equilibrium solvation (IEInf=0, Eps=  37.2190, EpsInf=   2.0463)
          Differentiating once with respect to nuclear coordinates.
 FoFCou: FMM=F IPFlag=           0 FMFlag=      100000 FMFlg1=           0
         NFxFlg=           0 DoJE=F BraDBF=T KetDBF=F FulRan=T
         wScrn=  0.000000 ICntrl=       500 IOpCl=  0 I1Cent=           5 NGrid=           0
         NMat0=   54 NMatS0=     54 NMatT0=    0 NMatD0=   54 NMtDS0=    0 NMtDT0=    0
 Symmetry not used in FoFCou.
          There are    54 degrees of freedom in the 1st order CPHF.  IDoFFX=6 NUNeed=     0.
     48 vectors produced by pass  0 Test12= 6.73D-15 1.85D-09 XBig12= 7.13D-02 4.73D-02.
 AX will form    48 AO Fock derivatives at one time.
     48 vectors produced by pass  1 Test12= 6.73D-15 1.85D-09 XBig12= 5.21D-03 1.16D-02.
     48 vectors produced by pass  2 Test12= 6.73D-15 1.85D-09 XBig12= 7.61D-05 1.08D-03.
     48 vectors produced by pass  3 Test12= 6.73D-15 1.85D-09 XBig12= 6.28D-07 8.91D-05.
     48 vectors produced by pass  4 Test12= 6.73D-15 1.85D-09 XBig12= 1.79D-09 4.81D-06.
     42 vectors produced by pass  5 Test12= 6.73D-15 1.85D-09 XBig12= 3.69D-12 1.91D-07.
      5 vectors produced by pass  6 Test12= 6.73D-15 1.85D-09 XBig12= 2.54D-15 4.35D-09.
 InvSVY:  IOpt=1 It=  1 EMax= 2.78D-16
 Solved reduced A of dimension   287 with    54 vectors.
 End of Minotr F.D. properties file   721 does not exist.
 End of Minotr F.D. properties file   722 does not exist.
 End of Minotr F.D. properties file   788 does not exist.

 **********************************************************************

            Population analysis using the SCF Density.

 **********************************************************************

 Alpha  occ. eigenvalues --  -14.30852 -10.09734 -10.09729 -10.09697 -10.09089
 Alpha  occ. eigenvalues --   -0.98794  -0.71168  -0.71039  -0.70816  -0.59384
 Alpha  occ. eigenvalues --   -0.48795  -0.48692  -0.48519  -0.40842  -0.40718
 Alpha  occ. eigenvalues --   -0.36809  -0.36794  -0.36687  -0.36654  -0.36555
 Alpha  occ. eigenvalues --   -0.36421
 Alpha virt. eigenvalues --   -0.01154   0.01453   0.01458   0.01470   0.02720
 Alpha virt. eigenvalues --    0.03124   0.03143   0.03171   0.04787   0.04832
 Alpha virt. eigenvalues --    0.07836   0.07862   0.07885   0.09430   0.09464
 Alpha virt. eigenvalues --    0.09551   0.11739   0.12231   0.12322   0.12352
 Alpha virt. eigenvalues --    0.13324   0.13440   0.14596   0.14930   0.14957
 Alpha virt. eigenvalues --    0.14983   0.15809   0.16069   0.16205   0.17256
 Alpha virt. eigenvalues --    0.17371   0.18656   0.18682   0.18721   0.19423
 Alpha virt. eigenvalues --    0.19507   0.19660   0.21393   0.21635   0.21668
 Alpha virt. eigenvalues --    0.25688   0.25712   0.26005   0.26895   0.32671
 Alpha virt. eigenvalues --    0.32935   0.33078   0.39201   0.39315   0.44097
 Alpha virt. eigenvalues --    0.50397   0.50690   0.50767   0.54458   0.55025
 Alpha virt. eigenvalues --    0.55072   0.56945   0.57079   0.57222   0.60495
 Alpha virt. eigenvalues --    0.60657   0.60671   0.61773   0.62168   0.62252
 Alpha virt. eigenvalues --    0.62518   0.65005   0.65036   0.73896   0.75135
 Alpha virt. eigenvalues --    0.75396   0.76424   0.77818   0.78032   0.78505
 Alpha virt. eigenvalues --    0.86330   0.92944   0.93136   1.02163   1.02256
 Alpha virt. eigenvalues --    1.02455   1.12308   1.12411   1.12806   1.39371
 Alpha virt. eigenvalues --    1.39895   1.40136   1.43534   1.45096   1.45605
 Alpha virt. eigenvalues --    1.48016   1.48247   1.48553   1.48869   1.54310
 Alpha virt. eigenvalues --    1.55260   1.55317   1.56572   1.56909   1.57390
 Alpha virt. eigenvalues --    1.65115   1.65899   1.70201   1.70554   1.71218
 Alpha virt. eigenvalues --    1.78210   1.82221   1.82986   1.83591   1.84348
 Alpha virt. eigenvalues --    1.84379   1.84575   1.99183   1.99447   2.00118
 Alpha virt. eigenvalues --    2.02945   2.03119   2.12238   2.12456   2.13216
 Alpha virt. eigenvalues --    2.19425   2.20302   2.20605   2.26902   2.42002
 Alpha virt. eigenvalues --    2.42167   2.42754   2.45003   2.45502   2.48592
 Alpha virt. eigenvalues --    2.51598   2.52069   2.52633   2.53204   2.54094
 Alpha virt. eigenvalues --    2.54396   2.60197   2.60279   2.69152   2.69662
 Alpha virt. eigenvalues --    2.69964   2.71341   2.71789   2.71979   2.75705
 Alpha virt. eigenvalues --    2.76368   2.76773   2.82550   2.82806   2.91274
 Alpha virt. eigenvalues --    3.13745   3.13955   3.14135   3.58104   3.58812
 Alpha virt. eigenvalues --    3.59250   3.73136   3.73937   3.74480   3.75164
 Alpha virt. eigenvalues --    3.78528   3.79033   3.80598   3.81610   3.82058
 Alpha virt. eigenvalues --    4.79129   4.80536   4.80770  24.03735  24.05344
 Alpha virt. eigenvalues --   24.05662  24.10812  35.58399
          Condensed to atoms (all electrons):
               1          2          3          4          5          6
     1  C    5.331189  -0.149763  -0.152939  -0.157776  -0.008345  -0.007310
     2  C   -0.149763   5.305938  -0.153659  -0.148333   0.019736  -0.008623
     3  C   -0.152939  -0.153659   5.330779  -0.154208  -0.008132   0.020531
     4  C   -0.157776  -0.148333  -0.154208   5.328514   0.373445   0.373556
     5  H   -0.008345   0.019736  -0.008132   0.373445   0.549714  -0.042608
     6  H   -0.007310  -0.008623   0.020531   0.373556  -0.042608   0.548076
     7  H    0.022918  -0.007401  -0.009220   0.368017  -0.038397  -0.035938
     8  H    0.367573  -0.007101  -0.008101   0.021677   0.000785   0.000508
     9  H    0.372663  -0.008919   0.022085  -0.009720   0.006866  -0.009796
    10  H    0.373933   0.019651  -0.008619  -0.007243  -0.009166   0.006885
    11  H   -0.008071   0.374009  -0.008709   0.020532  -0.006196   0.001547
    12  H   -0.007435   0.373635   0.020320  -0.007717   0.000706  -0.009362
    13  H    0.020784  -0.007507   0.368517  -0.006712   0.006719   0.000640
    14  H   -0.009019  -0.007474   0.370843   0.021966   0.001108  -0.005985
    15  H   -0.009136   0.021000   0.372603  -0.009421  -0.010189   0.001259
    16  N    0.248925   0.260649   0.255298   0.247782  -0.023275  -0.024003
    17  H    0.020442   0.375711  -0.009265  -0.009047   0.001439   0.006577
               7          8          9         10         11         12
     1  C    0.022918   0.367573   0.372663   0.373933  -0.008071  -0.007435
     2  C   -0.007401  -0.007101  -0.008919   0.019651   0.374009   0.373635
     3  C   -0.009220  -0.008101   0.022085  -0.008619  -0.008709   0.020320
     4  C    0.368017   0.021677  -0.009720  -0.007243   0.020532  -0.007717
     5  H   -0.038397   0.000785   0.006866  -0.009166  -0.006196   0.000706
     6  H   -0.035938   0.000508  -0.009796   0.006885   0.001547  -0.009362
     7  H    0.553744  -0.006319   0.001200   0.000736   0.001285   0.007077
     8  H   -0.006319   0.552956  -0.038536  -0.039465  -0.009991   0.006659
     9  H    0.001200  -0.038536   0.550184  -0.038813   0.006834  -0.010453
    10  H    0.000736  -0.039465  -0.038813   0.547750   0.000821   0.001387
    11  H    0.001285  -0.009991   0.006834   0.000821   0.550397  -0.041261
    12  H    0.007077   0.006659  -0.010453   0.001387  -0.041261   0.548858
    13  H   -0.010159   0.000704  -0.006229   0.001272   0.006998   0.001408
    14  H    0.001265  -0.009549   0.001323   0.006389  -0.010413   0.001023
    15  H    0.006533   0.007187   0.000924  -0.009663   0.001320  -0.006157
    16  N   -0.023028  -0.022765  -0.022987  -0.024207  -0.022376  -0.023379
    17  H   -0.010192   0.001601   0.001108  -0.006040  -0.040266  -0.040724
              13         14         15         16         17
     1  C    0.020784  -0.009019  -0.009136   0.248925   0.020442
     2  C   -0.007507  -0.007474   0.021000   0.260649   0.375711
     3  C    0.368517   0.370843   0.372603   0.255298  -0.009265
     4  C   -0.006712   0.021966  -0.009421   0.247782  -0.009047
     5  H    0.006719   0.001108  -0.010189  -0.023275   0.001439
     6  H    0.000640  -0.005985   0.001259  -0.024003   0.006577
     7  H   -0.010159   0.001265   0.006533  -0.023028  -0.010192
     8  H    0.000704  -0.009549   0.007187  -0.022765   0.001601
     9  H   -0.006229   0.001323   0.000924  -0.022987   0.001108
    10  H    0.001272   0.006389  -0.009663  -0.024207  -0.006040
    11  H    0.006998  -0.010413   0.001320  -0.022376  -0.040266
    12  H    0.001408   0.001023  -0.006157  -0.023379  -0.040724
    13  H    0.551188  -0.037275  -0.041740  -0.022860  -0.009630
    14  H   -0.037275   0.551816  -0.037650  -0.024695   0.007272
    15  H   -0.041740  -0.037650   0.550785  -0.023254   0.000860
    16  N   -0.022860  -0.024695  -0.023254   6.469899  -0.023073
    17  H   -0.009630   0.007272   0.000860  -0.023073   0.550136
 Mulliken charges:
               1
     1  C   -0.248632
     2  C   -0.251550
     3  C   -0.248127
     4  C   -0.245311
     5  H    0.185789
     6  H    0.184046
     7  H    0.177878
     8  H    0.182176
     9  H    0.182267
    10  H    0.184393
    11  H    0.183540
    12  H    0.185416
    13  H    0.183880
    14  H    0.179055
    15  H    0.184740
    16  N   -0.202652
    17  H    0.183091
 Sum of Mulliken charges =   1.00000
 Mulliken charges with hydrogens summed into heavy atoms:
               1
     1  C    0.300204
     2  C    0.300497
     3  C    0.299548
     4  C    0.302402
    16  N   -0.202652
 APT charges:
               1
     1  C    4.026275
     2  C    0.969266
     3  C   -3.350799
     4  C   -5.407460
     5  H    1.893430
     6  H   -1.207584
     7  H    3.677017
     8  H   -2.614233
     9  H   -1.287064
    10  H    1.606376
    11  H   -2.559118
    12  H   -1.347625
    13  H    3.999906
    14  H   -2.712807
    15  H    1.693820
    16  N   -0.103753
    17  H    3.724354
 Sum of APT charges =   1.00000
 APT charges with hydrogens summed into heavy atoms:
               1
     1  C    1.731353
     2  C    0.786877
     3  C   -0.369880
     4  C   -1.044598
    16  N   -0.103753
 Electronic spatial extent (au):  <R**2>=         113620.7116
 Charge=              1.0000 electrons
 Dipole moment (field-independent basis, Debye):
    X=             59.6528    Y=             51.6517    Z=            105.7475  Tot=            131.9427
 Quadrupole moment (field-independent basis, Debye-Ang):
   XX=            714.3705   YY=            529.0446   ZZ=           2301.6897
   XY=            641.4320   XZ=           1313.4118   YZ=           1137.1150
 Traceless Quadrupole moment (field-independent basis, Debye-Ang):
   XX=           -467.3311   YY=           -652.6570   ZZ=           1119.9881
   XY=            641.4320   XZ=           1313.4118   YZ=           1137.1150
 Octapole moment (field-independent basis, Debye-Ang**2):
  XXX=           8214.2120  YYY=           5121.4200  ZZZ=          49509.5913  XYY=           6568.8377
  XXY=           7680.9886  XXZ=          15729.8084  XZZ=          28589.6309  YZZ=          24749.2671
  YYZ=          11646.3211  XYZ=          14122.2892
 Hexadecapole moment (field-independent basis, Debye-Ang**3):
 XXXX=          89587.0114 YYYY=          45742.9559 ZZZZ=        1051383.1500 XXXY=          88316.4960
 XXXZ=         180881.4476 YYYX=          63569.7971 YYYZ=         112737.3848 ZZZX=         615008.7609
 ZZZY=         532333.9341 XXYY=          78446.2380 XXZZ=         342213.2283 YYZZ=         253264.3364
 XXYZ=         169120.2857 YYXZ=         144621.4747 ZZXY=         307395.3587
 N-N= 2.148850469258D+02 E-N=-9.160995658977D+02  KE= 2.132384982334D+02
  Exact polarizability:       0.000       0.000       0.000       0.000       0.000       0.000
 Approx polarizability:      77.725      -0.090      77.828       0.134      -0.239      77.705
 D2PCM: PCM CHGder 2nd derivatives, FixD1E=F FixD2E=F DoIter=F DoCFld=F I1PDM=0
 Calling FoFJK, ICntrl=    100527 FMM=F ISym2X=0 I1Cent= 4 IOpClX= 0 NMat=1 NMatS=1 NMatT=0.
 -------------------------------------------------------------------
 Center     Atomic                   Forces (Hartrees/Bohr)
 Number     Number              X              Y              Z
 -------------------------------------------------------------------
      1        6          -0.000338098    0.000902865   -0.000473226
      2        6           0.005586048   -0.006016540    0.002644500
      3        6          -0.001019425   -0.001094437    0.000304388
      4        6          -0.000579021   -0.003274146   -0.001491911
      5        1           0.000764297    0.001063816   -0.000412815
      6        1           0.000261143    0.002863076   -0.000673131
      7        1          -0.000560977   -0.001452592    0.002132593
      8        1          -0.000283619   -0.001781328    0.002440236
      9        1           0.001244189    0.000381002   -0.000447319
     10        1          -0.000182839    0.001141442   -0.000417863
     11        1           0.003240392   -0.000111992   -0.013137019
     12        1          -0.011444415   -0.006290615    0.003744091
     13        1          -0.000014817    0.000102930   -0.001816012
     14        1           0.001042402    0.000135132    0.002755332
     15        1          -0.000736431    0.000676055   -0.001367412
     16        7          -0.001114938    0.002214891   -0.001223259
     17        1           0.004136111    0.010540440    0.007438825
 -------------------------------------------------------------------
 Cartesian Forces:  Max     0.013137019 RMS     0.003691732
 FormGI is forming the generalized inverse of G from B-inverse, IUseBI=4.

 GradGradGradGradGradGradGradGradGradGradGradGradGradGradGradGradGradGrad
 Berny optimization.
 Internal  Forces:  Max     0.013347112 RMS     0.002818233
 Search for a local minimum.
 Step number   1 out of a maximum of   92
 All quantities printed in internal units (Hartrees-Bohrs-Radians)
 Mixed Optimization -- RFO/linear search
 Second derivative matrix not updated -- analytic derivatives used.
 ITU=  0
     Eigenvalues ---    0.00219   0.00374   0.00416   0.00436   0.04476
     Eigenvalues ---    0.04492   0.04503   0.04524   0.04553   0.04593
     Eigenvalues ---    0.04611   0.04621   0.04789   0.04890   0.05168
     Eigenvalues ---    0.12218   0.12571   0.12600   0.12942   0.13354
     Eigenvalues ---    0.13987   0.16643   0.16720   0.16989   0.17524
     Eigenvalues ---    0.17648   0.17893   0.19915   0.19970   0.29821
     Eigenvalues ---    0.30118   0.30294   0.34072   0.34346   0.34460
     Eigenvalues ---    0.34626   0.34686   0.34730   0.34850   0.34897
     Eigenvalues ---    0.34991   0.35063   0.38834   0.38916   0.38920
 RFO step:  Lambda=-2.24005306D-03 EMin= 2.18571779D-03
 Linear search not attempted -- first point.
 Iteration  1 RMS(Cart)=  0.02350669 RMS(Int)=  0.00046220
 Iteration  2 RMS(Cart)=  0.00049834 RMS(Int)=  0.00004274
 Iteration  3 RMS(Cart)=  0.00000028 RMS(Int)=  0.00004274
 Variable       Old X    -DE/DX   Delta X   Delta X   Delta X     New X
                                 (Linear)    (Quad)   (Total)
    R1        2.06497  -0.00268   0.00000  -0.00763  -0.00763   2.05734
    R2        2.06148  -0.00137   0.00000  -0.00394  -0.00394   2.05755
    R3        2.06050  -0.00104   0.00000  -0.00279  -0.00279   2.05771
    R4        2.82488  -0.00114   0.00000  -0.00303  -0.00303   2.82185
    R5        2.02201   0.01328   0.00000   0.03348   0.03348   2.05548
    R6        2.02201   0.01335   0.00000   0.03364   0.03364   2.05564
    R7        2.82725  -0.00250   0.00000  -0.00438  -0.00438   2.82287
    R8        2.02201   0.01331   0.00000   0.03363   0.03363   2.05564
    R9        2.06006  -0.00080   0.00000  -0.00230  -0.00230   2.05777
   R10        2.06430  -0.00264   0.00000  -0.00679  -0.00679   2.05751
   R11        2.06163  -0.00138   0.00000  -0.00408  -0.00408   2.05755
   R12        2.82826  -0.00070   0.00000  -0.00591  -0.00591   2.82235
   R13        2.05894  -0.00027   0.00000  -0.00139  -0.00139   2.05755
   R14        2.06186  -0.00145   0.00000  -0.00441  -0.00441   2.05745
   R15        2.05785  -0.00053   0.00000  -0.00011  -0.00011   2.05773
   R16        2.82461  -0.00035   0.00000  -0.00263  -0.00263   2.82198
    A1        1.92774  -0.00070   0.00000  -0.00198  -0.00203   1.92571
    A2        1.93360  -0.00070   0.00000  -0.00732  -0.00729   1.92630
    A3        1.88152   0.00213   0.00000   0.01371   0.01370   1.89521
    A4        1.92429   0.00036   0.00000   0.00154   0.00154   1.92584
    A5        1.89450   0.00005   0.00000   0.00140   0.00138   1.89588
    A6        1.90107  -0.00109   0.00000  -0.00701  -0.00700   1.89407
    A7        1.91063   0.00257   0.00000   0.01584   0.01571   1.92634
    A8        1.91063  -0.00255   0.00000  -0.01530  -0.01543   1.89520
    A9        1.91063   0.00257   0.00000   0.01601   0.01588   1.92651
   A10        1.91063  -0.00258   0.00000  -0.01594  -0.01608   1.89455
   A11        1.91063   0.00257   0.00000   0.01559   0.01544   1.92607
   A12        1.91063  -0.00258   0.00000  -0.01620  -0.01634   1.89430
   A13        1.94210  -0.00148   0.00000  -0.01519  -0.01519   1.92691
   A14        1.91598   0.00020   0.00000   0.00941   0.00934   1.92532
   A15        1.88765   0.00081   0.00000   0.00604   0.00600   1.89365
   A16        1.93755  -0.00105   0.00000  -0.01065  -0.01065   1.92690
   A17        1.88836   0.00148   0.00000   0.00710   0.00709   1.89546
   A18        1.89058   0.00015   0.00000   0.00419   0.00416   1.89474
   A19        1.90347   0.00159   0.00000   0.02198   0.02199   1.92546
   A20        1.93706  -0.00137   0.00000  -0.01087  -0.01087   1.92619
   A21        1.89653  -0.00098   0.00000  -0.00247  -0.00247   1.89406
   A22        1.94845  -0.00182   0.00000  -0.02097  -0.02092   1.92753
   A23        1.90211  -0.00121   0.00000  -0.00665  -0.00663   1.89548
   A24        1.87513   0.00378   0.00000   0.01909   0.01912   1.89425
   A25        1.90408   0.00070   0.00000   0.00708   0.00709   1.91117
   A26        1.91150   0.00014   0.00000  -0.00070  -0.00073   1.91076
   A27        1.93101  -0.00157   0.00000  -0.02071  -0.02069   1.91032
   A28        1.90661  -0.00048   0.00000   0.00402   0.00398   1.91059
   A29        1.90649   0.00047   0.00000   0.00499   0.00498   1.91147
   A30        1.90399   0.00075   0.00000   0.00557   0.00550   1.90949
    D1        1.05191   0.00016   0.00000   0.00459   0.00461   1.05653
    D2       -1.03411   0.00024   0.00000  -0.00416  -0.00412  -1.03822
    D3       -3.13352   0.00021   0.00000   0.00243   0.00242  -3.13111
    D4       -1.03652  -0.00025   0.00000  -0.00163  -0.00163  -1.03815
    D5       -3.12254  -0.00017   0.00000  -0.01038  -0.01037  -3.13290
    D6        1.06123  -0.00020   0.00000  -0.00379  -0.00383   1.05740
    D7       -3.13210  -0.00007   0.00000  -0.00021  -0.00022  -3.13232
    D8        1.06506   0.00001   0.00000  -0.00897  -0.00895   1.05612
    D9       -1.03435  -0.00002   0.00000  -0.00237  -0.00242  -1.03676
   D10       -1.07369  -0.00034   0.00000   0.01577   0.01576  -1.05793
   D11        1.01535  -0.00005   0.00000   0.02156   0.02158   1.03693
   D12        3.09672   0.00086   0.00000   0.03370   0.03370   3.13041
   D13        1.02070  -0.00034   0.00000   0.01604   0.01603   1.03673
   D14        3.10975  -0.00004   0.00000   0.02183   0.02184   3.13159
   D15       -1.09207   0.00087   0.00000   0.03397   0.03396  -1.05811
   D16        3.11510  -0.00035   0.00000   0.01545   0.01545   3.13054
   D17       -1.07904  -0.00005   0.00000   0.02124   0.02126  -1.05778
   D18        1.00232   0.00085   0.00000   0.03338   0.03338   1.03570
   D19       -3.11401   0.00018   0.00000  -0.01107  -0.01108  -3.12509
   D20        1.08472  -0.00047   0.00000  -0.02172  -0.02172   1.06299
   D21       -0.99819  -0.00120   0.00000  -0.03347  -0.03351  -1.03170
   D22        1.06353   0.00064   0.00000  -0.00041  -0.00040   1.06313
   D23       -1.02093  -0.00001   0.00000  -0.01106  -0.01104  -1.03197
   D24       -3.10383  -0.00074   0.00000  -0.02281  -0.02283  -3.12666
   D25       -1.03834   0.00095   0.00000   0.00586   0.00589  -1.03245
   D26       -3.12280   0.00031   0.00000  -0.00478  -0.00475  -3.12756
   D27        1.07747  -0.00042   0.00000  -0.01654  -0.01654   1.06093
   D28        1.10797  -0.00019   0.00000  -0.03558  -0.03558   1.07239
   D29       -3.07891  -0.00001   0.00000  -0.03651  -0.03652  -3.11543
   D30       -0.99592   0.00014   0.00000  -0.02536  -0.02535  -1.02128
   D31       -0.96429  -0.00085   0.00000  -0.05678  -0.05680  -1.02109
   D32        1.13202  -0.00067   0.00000  -0.05772  -0.05774   1.07428
   D33       -3.06819  -0.00052   0.00000  -0.04656  -0.04657  -3.11475
   D34       -3.07817  -0.00020   0.00000  -0.03900  -0.03900  -3.11716
   D35       -0.98186  -0.00002   0.00000  -0.03994  -0.03993  -1.02179
   D36        1.10113   0.00013   0.00000  -0.02879  -0.02877   1.07236
         Item               Value     Threshold  Converged?
 Maximum Force            0.013347     0.000450     NO 
 RMS     Force            0.002818     0.000300     NO 
 Maximum Displacement     0.072055     0.001800     NO 
 RMS     Displacement     0.023522     0.001200     NO 
 Predicted change in Energy=-1.156276D-03
 GradGradGradGradGradGradGradGradGradGradGradGradGradGradGradGradGradGrad

                          Input orientation:                          
 ---------------------------------------------------------------------
 Center     Atomic      Atomic             Coordinates (Angstroms)
 Number     Number       Type             X           Y           Z
 ---------------------------------------------------------------------
      1          6           0       12.163185    9.449536   21.336818
      2          6           0       11.432364   11.768486   21.534222
      3          6           0       13.803137   11.218516   21.696089
      4          6           0       12.280806   10.584713   23.491502
      5          1           0       13.024357    9.863884   23.827719
      6          1           0       11.277361   10.221027   23.706487
      7          1           0       12.445821   11.549657   23.968335
      8          1           0       12.278268    9.587337   20.263025
      9          1           0       11.149099    9.129475   21.570686
     10          1           0       12.884309    8.721415   21.704932
     11          1           0       11.554028   11.889070   20.460080
     12          1           0       10.430727   11.411912   21.764189
     13          1           0       13.978710   12.161823   22.210966
     14          1           0       13.885091   11.353108   20.618766
     15          1           0       14.508833   10.463632   22.039089
     16          7           0       12.419412   10.755292   22.014441
     17          1           0       11.625827   12.709033   22.045342
 ---------------------------------------------------------------------
                    Distance matrix (angstroms):
                    1          2          3          4          5
     1  C    0.000000
     2  C    2.439385   0.000000
     3  C    2.438813   2.439105   0.000000
     4  C    2.438263   2.439697   2.437767   0.000000
     5  H    2.667937   3.379657   2.642985   1.088809   0.000000
     6  H    2.644847   2.671590   3.378791   1.088755   1.787245
     7  H    3.378650   2.645730   2.667407   1.088906   1.787822
     8  H    1.088698   2.662500   2.653233   3.379028   3.652420
     9  H    1.088808   2.654421   3.379902   2.662332   3.024921
    10  H    1.088893   3.379635   2.660797   2.651024   2.414762
    11  H    2.662906   1.087715   2.652519   3.379212   4.195740
    12  H    2.652353   1.087800   3.378637   2.662829   3.658068
    13  H    3.378871   2.663940   1.088922   2.647627   2.967356
    14  H    2.665360   2.650748   1.088787   3.378872   3.640883
    15  H    2.650215   3.379673   1.088809   2.662380   2.400533
    16  N    1.493259   1.493800   1.493526   1.493325   2.109157
    17  H    3.378621   1.087796   2.661634   2.652001   3.636980
                    6          7          8          9         10
     6  H    0.000000
     7  H    1.788609   0.000000
     8  H    3.641539   4.196201   0.000000
     9  H    2.401995   3.645201   1.787355   0.000000
    10  H    2.972766   3.648866   1.787793   1.787592   0.000000
    11  H    3.660338   3.635705   2.421019   3.002130   3.654223
    12  H    2.430539   2.989622   2.999329   2.400629   3.641751
    13  H    3.646993   2.410984   3.648830   4.196641   3.645572
    14  H    4.197128   3.650992   2.413789   3.651896   3.017802
    15  H    3.644377   3.026129   2.982905   3.645159   2.405424
    16  N    2.110152   2.109364   2.109857   2.110425   2.109166
    17  H    3.011811   2.390490   3.653398   3.642225   4.195325
                   11         12         13         14         15
    11  H    0.000000
    12  H    1.786109   0.000000
    13  H    3.003179   3.653788   0.000000
    14  H    2.397142   3.639791   1.788264   0.000000
    15  H    3.640881   4.195921   1.787295   1.788166   0.000000
    16  N    2.109593   2.109181   2.109114   2.110333   2.109822
    17  H    1.786211   1.786011   2.421349   2.996319   3.654256
                   16         17
    16  N    0.000000
    17  H    2.108989   0.000000
 Symmetry turned off by external request.
 Stoichiometry    C4H12N(1+)
 Framework group  C1[X(C4H12N)]
 Deg. of freedom    45
 Full point group                 C1      NOp   1
 Rotational constants (GHZ):           4.7139542           4.7121822           4.7094263
 Standard basis: 6-311++G(d,p) (5D, 7F)
   194 basis functions,   288 primitive gaussians,   199 cartesian basis functions
    21 alpha electrons       21 beta electrons
       nuclear repulsion energy       214.9653712224 Hartrees.
 NAtoms=   17 NActive=   17 NUniq=   17 SFac= 1.00D+00 NAtFMM=   60 NAOKFM=F Big=F
 Integral buffers will be    131072 words long.
 Raffenetti 2 integral format.
 Two-electron integral symmetry is turned off.
 Standard density basis: Auto (5D, 7F)
   908 Density fitting functions
 ------------------------------------------------------------------------------
 Polarizable Continuum Model (PCM)
 =================================
 Model                : PCM.
 Atomic radii         : SMD-Coulomb.
 Polarization charges : Total charges.
 Charge compensation  : None.
 Solution method      : Matrix inversion.
 Cavity type          : VdW (van der Waals Surface) (Alpha=1.000).
 Cavity algorithm     : GePol (No added spheres)
                        Default sphere list used, NSphG=   17.
                        Lebedev-Laikov grids with approx.  5.0 points / Ang**2.
                        Smoothing algorithm: York/Karplus (Gamma=1.0000).
                        Polarization charges: spherical gaussians, with
                                              point-specific exponents (IZeta= 3).
                        Self-potential: point-specific (ISelfS= 7).
                        Self-field    : sphere-specific E.n sum rule (ISelfD= 2).
 1st derivatives      : Analytical E(r).r(x)/FMM algorithm (CHGder, D1EAlg=3).
                        Cavity 1st derivative terms included.
 Solvent              : n,n-DiMethylFormamide, Eps=  37.219000 Eps(inf)=   2.046330
 ------------------------------------------------------------------------------
 Spheres list:
 ISph  on   Nord     Re0    Alpha      Xe            Ye            Ze
    1   C      1    1.8500  1.000     12.163185      9.449536     21.336818
    2   C      2    1.8500  1.000     11.432364     11.768486     21.534222
    3   C      3    1.8500  1.000     13.803137     11.218516     21.696089
    4   C      4    1.8500  1.000     12.280806     10.584713     23.491502
    5   H      5    1.2000  1.000     13.024357      9.863884     23.827719
    6   H      6    1.2000  1.000     11.277361     10.221027     23.706487
    7   H      7    1.2000  1.000     12.445821     11.549657     23.968335
    8   H      8    1.2000  1.000     12.278268      9.587337     20.263025
    9   H      9    1.2000  1.000     11.149099      9.129475     21.570686
   10   H     10    1.2000  1.000     12.884309      8.721415     21.704932
   11   H     11    1.2000  1.000     11.554028     11.889070     20.460080
   12   H     12    1.2000  1.000     10.430727     11.411912     21.764189
   13   H     13    1.2000  1.000     13.978710     12.161823     22.210966
   14   H     14    1.2000  1.000     13.885091     11.353108     20.618766
   15   H     15    1.2000  1.000     14.508833     10.463632     22.039089
   16   N     16    1.8900  1.000     12.419412     10.755292     22.014441
   17   H     17    1.2000  1.000     11.625827     12.709033     22.045342
 ------------------------------------------------------------------------------
 ------------------------------------------------------------------------------
 Atomic radii for non-electrostatic terms: SMD-CDS.
 ------------------------------------------------------------------------------
 Nuclear repulsion after PCM non-electrostatic terms =      214.9651678449 Hartrees.
 One-electron integrals computed using PRISM.
 NBasis=   194 RedAO= T EigKep=  1.39D-04  NBF=   194
 NBsUse=   194 1.00D-06 EigRej= -1.00D+00 NBFU=   194
 NBasis=      194 NBas6D=      199 NTT=       18915   NTT6D=    19900
 NDBShl=      154 NDBF=        908 NDBF6D=     1036  NNucDB=        0
 IDenFi=        2 ISolve=        0 FullAP=F BlkAPC=T NucTyp=        0
 TolInv= 1.00D-06 TolIt=  1.00D-10 IR12=0.
 FoFCou: FMM=F IPFlag=           0 FMFlag=           0 FMFlg1=           0
         NFxFlg=           0 DoJE=F BraDBF=T KetDBF=T FulRan=T
         wScrn=  0.000000 ICntrl=       600 IOpCl=  3 I1Cent=           6 NGrid=           0
         NMat0=    1 NMatS0=   1036 NMatT0=    0 NMatD0=    1 NMtDS0=    0 NMtDT0=    0
 Symmetry not used in FoFCou.
 DBF EigKep=  1.00D-06 EigRej=  9.98D-07
 NDBF=    908  NBFD=   908
 NRank=   867 NBFDU=   867
 S*AI*S=  11.5978100243    
 Initial guess from the checkpoint file:  "2_p1.chk"
 B after Tr=     0.047266    0.023498   -0.039306
         Rot=    1.000000   -0.000574    0.000300   -0.000597 Ang=  -0.10 deg.
 Recovered     1 saved fitting vectors from chk file.
 ExpMin= 3.60D-02 ExpMax= 6.29D+03 ExpMxC= 9.49D+02 IAcc=3 IRadAn=         5 AccDes= 0.00D+00
 Harris functional with IExCor= 1009 and IRadAn=       5 diagonalized for initial guess.
 HarFok:  IExCor= 1009 AccDes= 0.00D+00 IRadAn=         5 IDoV= 1 UseB2=F ITyADJ=14
 ICtDFT=  3500011 ScaDFX=  1.000000  1.000000  1.000000  1.000000
 FoFCou: FMM=F IPFlag=           0 FMFlag=      100000 FMFlg1=           0
         NFxFlg=           0 DoJE=T BraDBF=F KetDBF=T FulRan=T
         wScrn=  0.000000 ICntrl=       500 IOpCl=  0 I1Cent=   200000004 NGrid=           0
         NMat0=    1 NMatS0=      1 NMatT0=    0 NMatD0=    1 NMtDS0=    0 NMtDT0=    0
 Symmetry not used in FoFCou.
 Requested convergence on RMS density matrix=1.00D-08 within  32 cycles.
 Requested convergence on MAX density matrix=1.00D-06.
 Requested convergence on             energy=1.00D-06.
 No special actions if energy rises.
 FoFCou: FMM=F IPFlag=           0 FMFlag=      100000 FMFlg1=           0
         NFxFlg=           0 DoJE=T BraDBF=T KetDBF=F FulRan=T
         wScrn=  0.000000 ICntrl=       500 IOpCl=  0 I1Cent=           5 NGrid=           0
         NMat0=    1 NMatS0=      1 NMatT0=    0 NMatD0=    1 NMtDS0=    0 NMtDT0=    0
 Symmetry not used in FoFCou.
 Inv3:  Mode=1 IEnd=     3763200.
 Iteration    1 A*A^-1 deviation from unit magnitude is 2.66D-15 for    723.
 Iteration    1 A*A^-1 deviation from orthogonality  is 2.61D-15 for    659     24.
 Iteration    1 A^-1*A deviation from unit magnitude is 2.66D-15 for    723.
 Iteration    1 A^-1*A deviation from orthogonality  is 2.22D-15 for    938    473.
 Error on total polarization charges =  0.03004
 SCF Done:  E(RM06L) =  -214.274610636     A.U. after   10 cycles
            NFock= 10  Conv=0.53D-08     -V/T= 2.0050
 SMD-CDS (non-electrostatic) energy       (kcal/mol) =      -0.13
 (included in total energy above)
 QCSCF skips out because SCF is already converged.
 D1PCM: PCM CHGder 1st derivatives, ID1Alg=3 FixD1E=F DoIter=F DoCFld=F I1PDM=0.
 Calling FoFJK, ICntrl=      2527 FMM=F ISym2X=0 I1Cent= 4 IOpClX= 0 NMat=1 NMatS=1 NMatT=0.
 -------------------------------------------------------------------
 Center     Atomic                   Forces (Hartrees/Bohr)
 Number     Number              X              Y              Z
 -------------------------------------------------------------------
      1        6           0.000069526   -0.000021759   -0.000060840
      2        6           0.000361926   -0.000499981    0.000189919
      3        6          -0.000007322    0.000061306    0.000190702
      4        6          -0.000020214   -0.000165983    0.000051513
      5        1          -0.000072418   -0.000040319    0.000003124
      6        1          -0.000107091    0.000214864    0.000000860
      7        1           0.000072016   -0.000104477    0.000095283
      8        1           0.000018561   -0.000029631   -0.000023701
      9        1           0.000018822   -0.000019510    0.000005470
     10        1          -0.000005123   -0.000000809   -0.000015122
     11        1           0.000064510    0.000007301   -0.000730953
     12        1          -0.000646727   -0.000200852    0.000199746
     13        1           0.000010850    0.000053139   -0.000100747
     14        1           0.000049549   -0.000042370   -0.000002466
     15        1           0.000009846   -0.000006360    0.000026171
     16        7           0.000032525    0.000150658   -0.000070066
     17        1           0.000150764    0.000644782    0.000241107
 -------------------------------------------------------------------
 Cartesian Forces:  Max     0.000730953 RMS     0.000206264

 GradGradGradGradGradGradGradGradGradGradGradGradGradGradGradGradGradGrad
 Berny optimization.
 Using GEDIIS/GDIIS optimizer.
 FormGI is forming the generalized inverse of G from B-inverse, IUseBI=4.
 Internal  Forces:  Max     0.000715680 RMS     0.000146057
 Search for a local minimum.
 Step number   2 out of a maximum of   92
 All quantities printed in internal units (Hartrees-Bohrs-Radians)
 Mixed Optimization -- En-DIIS/RFO-DIIS
 Update second derivatives using D2CorX and points    1    2
 DE= -1.18D-03 DEPred=-1.16D-03 R= 1.02D+00
 TightC=F SS=  1.41D+00  RLast= 1.80D-01 DXNew= 5.0454D-01 5.3970D-01
 Trust test= 1.02D+00 RLast= 1.80D-01 DXMaxT set to 5.05D-01
 ITU=  1  0
 Use linear search instead of GDIIS.
     Eigenvalues ---    0.00218   0.00375   0.00417   0.00436   0.04478
     Eigenvalues ---    0.04494   0.04503   0.04524   0.04559   0.04592
     Eigenvalues ---    0.04613   0.04621   0.04788   0.04895   0.05162
     Eigenvalues ---    0.12278   0.12570   0.12603   0.12972   0.13356
     Eigenvalues ---    0.13983   0.16641   0.16719   0.16988   0.17521
     Eigenvalues ---    0.17662   0.17864   0.19912   0.19969   0.29809
     Eigenvalues ---    0.30120   0.30291   0.34073   0.34362   0.34491
     Eigenvalues ---    0.34630   0.34711   0.34732   0.34862   0.34904
     Eigenvalues ---    0.34995   0.35062   0.37268   0.38860   0.38919
 RFO step:  Lambda=-2.77377290D-05 EMin= 2.18471567D-03
 Quartic linear search produced a step of  0.06471.
 Iteration  1 RMS(Cart)=  0.01162139 RMS(Int)=  0.00012937
 Iteration  2 RMS(Cart)=  0.00013363 RMS(Int)=  0.00000284
 Iteration  3 RMS(Cart)=  0.00000001 RMS(Int)=  0.00000284
 Variable       Old X    -DE/DX   Delta X   Delta X   Delta X     New X
                                 (Linear)    (Quad)   (Total)
    R1        2.05734   0.00002  -0.00049   0.00051   0.00002   2.05736
    R2        2.05755  -0.00001  -0.00025   0.00027   0.00002   2.05756
    R3        2.05771  -0.00001  -0.00018   0.00010  -0.00008   2.05763
    R4        2.82185   0.00009  -0.00020   0.00064   0.00045   2.82230
    R5        2.05548   0.00071   0.00217  -0.00021   0.00196   2.05744
    R6        2.05564   0.00072   0.00218  -0.00025   0.00193   2.05757
    R7        2.82287   0.00005  -0.00028   0.00016  -0.00012   2.82275
    R8        2.05564   0.00070   0.00218  -0.00020   0.00197   2.05761
    R9        2.05777  -0.00000  -0.00015   0.00010  -0.00004   2.05772
   R10        2.05751   0.00002  -0.00044   0.00059   0.00015   2.05766
   R11        2.05755   0.00001  -0.00026   0.00030   0.00004   2.05759
   R12        2.82235   0.00005  -0.00038   0.00033  -0.00005   2.82230
   R13        2.05755  -0.00001  -0.00009   0.00005  -0.00004   2.05751
   R14        2.05745   0.00001  -0.00029   0.00025  -0.00004   2.05741
   R15        2.05773  -0.00004  -0.00001   0.00007   0.00006   2.05780
   R16        2.82198   0.00017  -0.00017   0.00025   0.00008   2.82205
    A1        1.92571  -0.00001  -0.00013   0.00015   0.00002   1.92573
    A2        1.92630  -0.00003  -0.00047   0.00039  -0.00008   1.92622
    A3        1.89521   0.00003   0.00089  -0.00081   0.00007   1.89529
    A4        1.92584  -0.00002   0.00010  -0.00031  -0.00021   1.92563
    A5        1.89588   0.00001   0.00009   0.00008   0.00017   1.89605
    A6        1.89407   0.00001  -0.00045   0.00050   0.00004   1.89411
    A7        1.92634   0.00002   0.00102  -0.00093   0.00008   1.92642
    A8        1.89520  -0.00004  -0.00100   0.00094  -0.00007   1.89514
    A9        1.92651  -0.00001   0.00103  -0.00112  -0.00010   1.92640
   A10        1.89455  -0.00002  -0.00104   0.00089  -0.00016   1.89439
   A11        1.92607  -0.00001   0.00100  -0.00107  -0.00008   1.92600
   A12        1.89430   0.00006  -0.00106   0.00140   0.00033   1.89463
   A13        1.92691  -0.00006  -0.00098   0.00058  -0.00040   1.92651
   A14        1.92532   0.00000   0.00060  -0.00002   0.00058   1.92590
   A15        1.89365   0.00008   0.00039  -0.00008   0.00031   1.89396
   A16        1.92690  -0.00003  -0.00069   0.00018  -0.00051   1.92640
   A17        1.89546  -0.00000   0.00046  -0.00064  -0.00018   1.89528
   A18        1.89474   0.00001   0.00027  -0.00005   0.00021   1.89495
   A19        1.92546   0.00005   0.00142  -0.00015   0.00127   1.92673
   A20        1.92619  -0.00008  -0.00070   0.00025  -0.00045   1.92574
   A21        1.89406  -0.00001  -0.00016   0.00042   0.00026   1.89433
   A22        1.92753  -0.00009  -0.00135   0.00031  -0.00104   1.92649
   A23        1.89548  -0.00004  -0.00043   0.00017  -0.00026   1.89522
   A24        1.89425   0.00017   0.00124  -0.00102   0.00022   1.89447
   A25        1.91117  -0.00002   0.00046  -0.00064  -0.00018   1.91099
   A26        1.91076  -0.00001  -0.00005  -0.00011  -0.00016   1.91061
   A27        1.91032  -0.00003  -0.00134   0.00103  -0.00031   1.91000
   A28        1.91059   0.00002   0.00026   0.00031   0.00057   1.91116
   A29        1.91147   0.00003   0.00032  -0.00059  -0.00027   1.91120
   A30        1.90949   0.00002   0.00036  -0.00000   0.00035   1.90984
    D1        1.05653  -0.00000   0.00030  -0.00610  -0.00580   1.05073
    D2       -1.03822  -0.00000  -0.00027  -0.00603  -0.00629  -1.04451
    D3       -3.13111  -0.00000   0.00016  -0.00658  -0.00643  -3.13753
    D4       -1.03815  -0.00002  -0.00011  -0.00586  -0.00596  -1.04412
    D5       -3.13290  -0.00002  -0.00067  -0.00578  -0.00645  -3.13936
    D6        1.05740  -0.00002  -0.00025  -0.00634  -0.00659   1.05081
    D7       -3.13232  -0.00001  -0.00001  -0.00582  -0.00584  -3.13815
    D8        1.05612  -0.00001  -0.00058  -0.00575  -0.00632   1.04979
    D9       -1.03676  -0.00001  -0.00016  -0.00630  -0.00646  -1.04323
   D10       -1.05793   0.00005   0.00102   0.00638   0.00740  -1.05053
   D11        1.03693   0.00003   0.00140   0.00605   0.00745   1.04438
   D12        3.13041   0.00008   0.00218   0.00588   0.00806   3.13847
   D13        1.03673   0.00004   0.00104   0.00633   0.00736   1.04410
   D14        3.13159   0.00002   0.00141   0.00599   0.00741   3.13900
   D15       -1.05811   0.00007   0.00220   0.00582   0.00802  -1.05010
   D16        3.13054   0.00004   0.00100   0.00637   0.00737   3.13792
   D17       -1.05778   0.00003   0.00138   0.00604   0.00742  -1.05037
   D18        1.03570   0.00008   0.00216   0.00587   0.00803   1.04372
   D19       -3.12509  -0.00006  -0.00072  -0.01172  -0.01243  -3.13752
   D20        1.06299  -0.00003  -0.00141  -0.01106  -0.01246   1.05053
   D21       -1.03170  -0.00009  -0.00217  -0.01053  -0.01270  -1.04440
   D22        1.06313  -0.00003  -0.00003  -0.01200  -0.01203   1.05111
   D23       -1.03197  -0.00001  -0.00071  -0.01134  -0.01206  -1.04403
   D24       -3.12666  -0.00006  -0.00148  -0.01081  -0.01229  -3.13895
   D25       -1.03245  -0.00001   0.00038  -0.01182  -0.01144  -1.04389
   D26       -3.12756   0.00002  -0.00031  -0.01116  -0.01147  -3.13903
   D27        1.06093  -0.00004  -0.00107  -0.01063  -0.01170   1.04923
   D28        1.07239  -0.00007  -0.00230  -0.02516  -0.02747   1.04492
   D29       -3.11543  -0.00010  -0.00236  -0.02568  -0.02804   3.13972
   D30       -1.02128  -0.00006  -0.00164  -0.02565  -0.02729  -1.04857
   D31       -1.02109  -0.00010  -0.00368  -0.02533  -0.02900  -1.05009
   D32        1.07428  -0.00013  -0.00374  -0.02584  -0.02958   1.04470
   D33       -3.11475  -0.00008  -0.00301  -0.02582  -0.02883   3.13960
   D34       -3.11716  -0.00008  -0.00252  -0.02521  -0.02773   3.13830
   D35       -1.02179  -0.00011  -0.00258  -0.02572  -0.02830  -1.05009
   D36        1.07236  -0.00006  -0.00186  -0.02570  -0.02756   1.04480
         Item               Value     Threshold  Converged?
 Maximum Force            0.000716     0.000450     NO 
 RMS     Force            0.000146     0.000300     YES
 Maximum Displacement     0.046704     0.001800     NO 
 RMS     Displacement     0.011621     0.001200     NO 
 Predicted change in Energy=-1.670384D-05
 GradGradGradGradGradGradGradGradGradGradGradGradGradGradGradGradGradGrad

                          Input orientation:                          
 ---------------------------------------------------------------------
 Center     Atomic      Atomic             Coordinates (Angstroms)
 Number     Number       Type             X           Y           Z
 ---------------------------------------------------------------------
      1          6           0       12.166366    9.449738   21.335307
      2          6           0       11.430741   11.766981   21.534748
      3          6           0       13.802870   11.221334   21.697635
      4          6           0       12.279845   10.582881   23.491237
      5          1           0       13.005429    9.842169   23.823402
      6          1           0       11.267412   10.245497   23.706870
      7          1           0       12.470536   11.541366   23.971580
      8          1           0       12.275797    9.590154   20.261253
      9          1           0       11.154954    9.124246   21.573261
     10          1           0       12.892548    8.724255   21.698524
     11          1           0       11.547715   11.883325   20.458570
     12          1           0       10.429210   11.411060   21.770937
     13          1           0       13.972293   12.170800   22.203116
     14          1           0       13.888969   11.345187   20.619268
     15          1           0       14.510332   10.472846   22.050922
     16          7           0       12.419700   10.755519   22.014490
     17          1           0       11.626618   12.710559   22.041567
 ---------------------------------------------------------------------
                    Distance matrix (angstroms):
                    1          2          3          4          5
     1  C    0.000000
     2  C    2.439372   0.000000
     3  C    2.438848   2.439520   0.000000
     4  C    2.438222   2.439450   2.438080   0.000000
     5  H    2.654929   3.379715   2.656481   1.088788   0.000000
     6  H    2.658131   2.657009   3.379028   1.088736   1.788003
     7  H    3.378959   2.658990   2.654875   1.088938   1.787551
     8  H    1.088707   2.659790   2.656293   3.379100   3.644829
     9  H    1.088816   2.657365   3.380045   2.659253   3.000467
    10  H    1.088849   3.379628   2.657836   2.654000   2.403660
    11  H    2.659651   1.088751   2.656922   3.379976   4.196825
    12  H    2.655987   1.088820   3.379786   2.658977   3.648415
    13  H    3.379148   2.658810   1.088899   2.654265   2.997111
    14  H    2.659473   2.656859   1.088866   3.379141   3.647764
    15  H    2.655754   3.380104   1.088829   2.657383   2.409184
    16  N    1.493496   1.493736   1.493499   1.493367   2.109372
    17  H    3.379806   1.088840   2.659352   2.656174   3.647426
                    6          7          8          9         10
     6  H    0.000000
     7  H    1.787975   0.000000
     8  H    3.649464   4.196627   0.000000
     9  H    2.412911   3.650364   1.787379   0.000000
    10  H    2.998116   3.644310   1.787711   1.787433   0.000000
    11  H    3.648630   3.648257   2.414056   3.001552   3.650450
    12  H    2.410177   3.004467   3.000788   2.407343   3.645847
    13  H    3.644783   2.403940   3.648104   4.197095   3.646798
    14  H    4.197042   3.645331   2.410526   3.649318   3.004486
    15  H    3.648339   2.998571   2.995865   3.647662   2.408107
    16  N    2.109986   2.109584   2.110123   2.110762   2.109373
    17  H    2.996463   2.409182   3.650736   3.647385   4.196532
                   11         12         13         14         15
    11  H    0.000000
    12  H    1.787847   0.000000
    13  H    3.000777   3.649305   0.000000
    14  H    2.407672   3.647001   1.788059   0.000000
    15  H    3.647209   4.196927   1.787651   1.787934   0.000000
    16  N    2.110258   2.109764   2.109300   2.110238   2.109970
    17  H    1.787854   1.787659   2.412391   3.000901   3.650103
                   16         17
    16  N    0.000000
    17  H    2.109951   0.000000
 Symmetry turned off by external request.
 Stoichiometry    C4H12N(1+)
 Framework group  C1[X(C4H12N)]
 Deg. of freedom    45
 Full point group                 C1      NOp   1
 Rotational constants (GHZ):           4.7130287           4.7112512           4.7093696
 Standard basis: 6-311++G(d,p) (5D, 7F)
   194 basis functions,   288 primitive gaussians,   199 cartesian basis functions
    21 alpha electrons       21 beta electrons
       nuclear repulsion energy       214.9447575403 Hartrees.
 NAtoms=   17 NActive=   17 NUniq=   17 SFac= 1.00D+00 NAtFMM=   60 NAOKFM=F Big=F
 Integral buffers will be    131072 words long.
 Raffenetti 2 integral format.
 Two-electron integral symmetry is turned off.
 Standard density basis: Auto (5D, 7F)
   908 Density fitting functions
 ------------------------------------------------------------------------------
 Polarizable Continuum Model (PCM)
 =================================
 Model                : PCM.
 Atomic radii         : SMD-Coulomb.
 Polarization charges : Total charges.
 Charge compensation  : None.
 Solution method      : Matrix inversion.
 Cavity type          : VdW (van der Waals Surface) (Alpha=1.000).
 Cavity algorithm     : GePol (No added spheres)
                        Default sphere list used, NSphG=   17.
                        Lebedev-Laikov grids with approx.  5.0 points / Ang**2.
                        Smoothing algorithm: York/Karplus (Gamma=1.0000).
                        Polarization charges: spherical gaussians, with
                                              point-specific exponents (IZeta= 3).
                        Self-potential: point-specific (ISelfS= 7).
                        Self-field    : sphere-specific E.n sum rule (ISelfD= 2).
 1st derivatives      : Analytical E(r).r(x)/FMM algorithm (CHGder, D1EAlg=3).
                        Cavity 1st derivative terms included.
 Solvent              : n,n-DiMethylFormamide, Eps=  37.219000 Eps(inf)=   2.046330
 ------------------------------------------------------------------------------
 Spheres list:
 ISph  on   Nord     Re0    Alpha      Xe            Ye            Ze
    1   C      1    1.8500  1.000     12.166366      9.449738     21.335307
    2   C      2    1.8500  1.000     11.430741     11.766981     21.534748
    3   C      3    1.8500  1.000     13.802870     11.221334     21.697635
    4   C      4    1.8500  1.000     12.279845     10.582881     23.491237
    5   H      5    1.2000  1.000     13.005429      9.842169     23.823402
    6   H      6    1.2000  1.000     11.267412     10.245497     23.706870
    7   H      7    1.2000  1.000     12.470536     11.541366     23.971580
    8   H      8    1.2000  1.000     12.275797      9.590154     20.261253
    9   H      9    1.2000  1.000     11.154954      9.124246     21.573261
   10   H     10    1.2000  1.000     12.892548      8.724255     21.698524
   11   H     11    1.2000  1.000     11.547715     11.883325     20.458570
   12   H     12    1.2000  1.000     10.429210     11.411060     21.770937
   13   H     13    1.2000  1.000     13.972293     12.170800     22.203116
   14   H     14    1.2000  1.000     13.888969     11.345187     20.619268
   15   H     15    1.2000  1.000     14.510332     10.472846     22.050922
   16   N     16    1.8900  1.000     12.419700     10.755519     22.014490
   17   H     17    1.2000  1.000     11.626618     12.710559     22.041567
 ------------------------------------------------------------------------------
 ------------------------------------------------------------------------------
 Atomic radii for non-electrostatic terms: SMD-CDS.
 ------------------------------------------------------------------------------
 Nuclear repulsion after PCM non-electrostatic terms =      214.9445533839 Hartrees.
 One-electron integrals computed using PRISM.
 NBasis=   194 RedAO= T EigKep=  1.39D-04  NBF=   194
 NBsUse=   194 1.00D-06 EigRej= -1.00D+00 NBFU=   194
 NBasis=      194 NBas6D=      199 NTT=       18915   NTT6D=    19900
 NDBShl=      154 NDBF=        908 NDBF6D=     1036  NNucDB=        0
 IDenFi=        2 ISolve=        0 FullAP=F BlkAPC=T NucTyp=        0
 TolInv= 1.00D-06 TolIt=  1.00D-10 IR12=0.
 FoFCou: FMM=F IPFlag=           0 FMFlag=           0 FMFlg1=           0
         NFxFlg=           0 DoJE=F BraDBF=T KetDBF=T FulRan=T
         wScrn=  0.000000 ICntrl=       600 IOpCl=  3 I1Cent=           6 NGrid=           0
         NMat0=    1 NMatS0=   1036 NMatT0=    0 NMatD0=    1 NMtDS0=    0 NMtDT0=    0
 Symmetry not used in FoFCou.
 DBF EigKep=  1.00D-06 EigRej=  9.99D-07
 NDBF=    908  NBFD=   908
 NRank=   867 NBFDU=   867
 S*AI*S=  11.5970163061    
 Initial guess from the checkpoint file:  "2_p1.chk"
 B after Tr=     0.030207   -0.000333   -0.016708
         Rot=    1.000000   -0.000220    0.000167   -0.000398 Ang=  -0.06 deg.
 Recovered     1 saved fitting vectors from chk file.
 ExpMin= 3.60D-02 ExpMax= 6.29D+03 ExpMxC= 9.49D+02 IAcc=3 IRadAn=         5 AccDes= 0.00D+00
 Harris functional with IExCor= 1009 and IRadAn=       5 diagonalized for initial guess.
 HarFok:  IExCor= 1009 AccDes= 0.00D+00 IRadAn=         5 IDoV= 1 UseB2=F ITyADJ=14
 ICtDFT=  3500011 ScaDFX=  1.000000  1.000000  1.000000  1.000000
 FoFCou: FMM=F IPFlag=           0 FMFlag=      100000 FMFlg1=           0
         NFxFlg=           0 DoJE=T BraDBF=F KetDBF=T FulRan=T
         wScrn=  0.000000 ICntrl=       500 IOpCl=  0 I1Cent=   200000004 NGrid=           0
         NMat0=    1 NMatS0=      1 NMatT0=    0 NMatD0=    1 NMtDS0=    0 NMtDT0=    0
 Symmetry not used in FoFCou.
 Requested convergence on RMS density matrix=1.00D-08 within  32 cycles.
 Requested convergence on MAX density matrix=1.00D-06.
 Requested convergence on             energy=1.00D-06.
 No special actions if energy rises.
 FoFCou: FMM=F IPFlag=           0 FMFlag=      100000 FMFlg1=           0
         NFxFlg=           0 DoJE=T BraDBF=T KetDBF=F FulRan=T
         wScrn=  0.000000 ICntrl=       500 IOpCl=  0 I1Cent=           5 NGrid=           0
         NMat0=    1 NMatS0=      1 NMatT0=    0 NMatD0=    1 NMtDS0=    0 NMtDT0=    0
 Symmetry not used in FoFCou.
 Inv3:  Mode=1 IEnd=     3783387.
 Iteration    1 A*A^-1 deviation from unit magnitude is 2.66D-15 for    184.
 Iteration    1 A*A^-1 deviation from orthogonality  is 2.04D-15 for    784    214.
 Iteration    1 A^-1*A deviation from unit magnitude is 2.89D-15 for    546.
 Iteration    1 A^-1*A deviation from orthogonality  is 1.78D-15 for    941    475.
 Error on total polarization charges =  0.03005
 SCF Done:  E(RM06L) =  -214.274626952     A.U. after    8 cycles
            NFock=  8  Conv=0.45D-08     -V/T= 2.0050
 SMD-CDS (non-electrostatic) energy       (kcal/mol) =      -0.13
 (included in total energy above)
 QCSCF skips out because SCF is already converged.
 D1PCM: PCM CHGder 1st derivatives, ID1Alg=3 FixD1E=F DoIter=F DoCFld=F I1PDM=0.
 Calling FoFJK, ICntrl=      2527 FMM=F ISym2X=0 I1Cent= 4 IOpClX= 0 NMat=1 NMatS=1 NMatT=0.
 -------------------------------------------------------------------
 Center     Atomic                   Forces (Hartrees/Bohr)
 Number     Number              X              Y              Z
 -------------------------------------------------------------------
      1        6          -0.000016872    0.000007247   -0.000011031
      2        6           0.000038897   -0.000006090   -0.000046094
      3        6           0.000013820    0.000009489   -0.000007210
      4        6           0.000005174    0.000037823    0.000072973
      5        1          -0.000023022    0.000011810    0.000023786
      6        1          -0.000022479   -0.000008432   -0.000004992
      7        1          -0.000045216   -0.000034536    0.000026820
      8        1           0.000013011   -0.000007216    0.000004519
      9        1           0.000006437    0.000001616   -0.000001861
     10        1          -0.000015573    0.000003039    0.000009355
     11        1           0.000031637    0.000003129   -0.000042390
[...]
   zz         0.718962D+02      0.106539D+02      0.118541D+02

 ----------------------------------------------------------------------
 Unable to Open any file for archive entry.
 1\1\GINC-CN1109\Freq\RM06L\6-311++G(d,p)/Auto\C4H12N1(1+)\QUACH062\10-
 Dec-2024\0\\#N Geom=AllCheck Guess=TCheck SCRF=Check GenChk RM06L/6-31
 1++G(d,p)/Auto Freq\\3D Atomistic (5)\\1,1\C,12.1660616128,9.449972095
 5,21.3354356815\C,11.4309567828,11.7671914127,21.534465081\C,13.803014
 8602,11.2211481834,21.6975825759\C,12.279827824,10.5828378901,23.49151
 36729\H,13.0071612507,9.8439396312,23.8238934629\H,11.2682151277,10.24
 27210641,23.7067688231\H,12.4678040669,11.5416239724,23.9722175137\H,1
 2.2752221554,9.5903856659,20.26136045\H,11.1547074199,9.1245781358,21.
 5737185499\H,12.8922259456,8.7243805477,21.6984316144\H,11.5480555951,
 11.8830256118,20.4581962822\H,10.4293160173,11.4114757373,21.770720520
 2\H,13.9732394376,12.1701961604,22.2035456844\H,13.8887993303,11.34564
 54271,20.619272777\H,14.5101897688,10.4720300634,22.0501153185\N,12.41
 9715863,10.7557090477,22.0146119905\H,11.6268217719,12.7110543638,22.0
 40838992\\Version=ES64L-G16RevC.01\HF=-214.2746272\RMSD=1.595e-09\RMSF
 =1.250e-05\ZeroPoint=0.1629067\Thermal=0.1694649\ETot=-214.1051623\HTo
 t=-214.1042181\GTot=-214.1404845\Dipole=0.0013429,0.0005376,-0.0000015
 \DipoleDeriv=0.1089516,0.0722115,0.0373471,0.0692871,0.4567059,0.18972
 34,0.0323255,0.1890436,0.1970752,0.3004888,-0.2187899,0.1015998,-0.213
 1601,0.314832,-0.1025882,0.099641,-0.1073097,0.1458669,0.5008199,0.137
 4825,-0.0924215,0.136121,0.1361673,-0.032218,-0.0946476,-0.0336975,0.1
 126949,0.1001709,0.0056463,-0.0452489,0.0040613,0.1005918,-0.0565829,-
 0.0411973,-0.0532631,0.5592966,0.0332539,0.0962315,-0.0295771,0.088665
 5,0.0385104,0.0481707,0.0151573,0.0071547,0.0265795,-0.0436419,-0.0587
 09,0.0415598,-0.0555739,0.1116867,0.0220525,-0.0180459,0.003527,0.0296
 077,0.1213786,-0.0375478,-0.0065375,-0.0346044,-0.0388156,-0.0653383,0
 .0064023,-0.0047167,0.0187565,0.1238887,-0.0202048,0.0237846,-0.025548
 7,0.0343518,0.047586,0.0100428,-0.0166315,-0.0631199,-0.0397593,-0.064
 5176,0.033578,-0.0129044,0.0484761,-0.0443473,0.0665533,-0.0210325,0.0
 892692,0.0275826,0.0808073,-0.0598228,0.0345742,-0.0002354,-0.0179367,
 -0.0754454,0.021456,0.0736024,0.0746349,0.0425721,0.0439797,0.0517799,
 0.0832666,-0.0035041,-0.000305,0.0393191,-0.0591544,-0.0453922,-0.0003
 738,0.0085947,-0.0554596,0.0417303,0.0482603,0.0383427,0.0463161,0.104
 3136,0.0425939,-0.0015381,0.03722,-0.0514304,-0.016354,-0.067456,0.007
 9803,-0.0862184,0.0754497,0.0414307,-0.025106,-0.0306145,-0.0308169,0.
 1195781,0.0083126,0.0303485,0.0275834,-0.0610621,-0.0032544,0.0149224,
 -0.0008626,0.0715711,0.0049768,0.0608811,-0.0304045,0.0640658,0.097879
 1,-0.4085563,0.0003579,0.0008115,0.0011753,-0.4055917,0.0028559,-0.000
 719,0.0013883,-0.4108055,0.0654095,-0.0234445,-0.0633902,0.022263,-0.0
 29877,-0.0378709,-0.0460291,-0.0769843,0.0637507\Polar=71.8218646,-0.0
 237178,71.9380557,0.0291099,0.0346171,71.8562619\Quadrupole=-347.33003
 06,-485.1390805,832.4691111,477.0623732,976.4709927,845.5610915\PG=C01
  [X(C4H12N1)]\NImag=0\\0.62684781,-0.02833818,0.47934135,-0.01550283,-
 0.07776540,0.59015309,0.00358911,0.00453587,0.00510338,0.54376848,0.02
 160809,-0.03630452,0.00640726,0.08842175,0.54045090,0.01148497,-0.0094
 9909,0.00672038,-0.04243250,0.04324122,0.60879998,-0.01230970,-0.01424
 894,-0.00422948,-0.03709567,0.00130189,0.00170314,0.46066277,-0.033399
 90,-0.01742493,0.00340585,0.02237599,0.00838720,-0.00563759,-0.0574614
 2,0.61160431,-0.01548065,-0.00451474,0.00346439,-0.00924677,-0.0046044
 9,0.00290387,0.03810692,0.01410367,0.62181460,0.00059370,0.00123422,-0
 .00580291,0.00162706,0.00445608,-0.02546983,-0.00827005,-0.00533801,0.
 03674525,0.62872908,0.00293270,0.00215209,-0.03436365,0.00073565,-0.00
 625844,0.02830413,-0.00378040,-0.00229365,0.01322255,-0.00348630,0.626
 34441,-0.00034978,-0.01086219,-0.02906512,-0.00797765,0.01207465,-0.02
 051436,0.01451891,0.00554841,-0.01505131,0.01678979,0.02390560,0.43601
 720,0.00014531,-0.00015887,0.00012366,0.00053188,-0.00052419,0.0007071
 4,0.00096080,-0.00079517,0.00088103,-0.17681673,0.13162589,-0.05701786
 ,0.18258813,-0.00063422,0.00062147,-0.00124241,-0.00084812,0.00075641,
 0.00061343,0.00042407,-0.00001140,-0.00014356,0.12967125,-0.17793654,0
 .05713135,-0.13939418,0.18532012,-0.00067159,0.00220656,0.00115303,0.0
 0227881,-0.00080285,-0.00623505,-0.00238662,0.00009942,0.00092826,-0.0
 4709934,0.04805258,-0.06931567,0.05853476,-0.06183866,0.08359509,0.000
 18674,-0.00010123,-0.00025257,0.00069987,0.00043846,-0.00100619,0.0013
 2305,0.00032099,0.00060482,-0.29423139,-0.08292594,0.05005400,-0.01385
 491,-0.00822183,0.00381808,0.30957992,0.00087060,0.00033093,-0.0005188
 2,-0.00079560,-0.00014371,0.00017467,0.00050385,0.00020909,0.00076844,
 -0.08181276,-0.07420044,0.01633188,0.01942037,0.00771387,-0.00521155,0
 .08906234,0.07405780,0.00137747,0.00172570,0.00157944,0.00207953,-0.00
 073780,0.00105211,-0.00142664,0.00014671,-0.00653769,0.03726740,0.0125
 1332,-0.05588973,-0.00838686,-0.00428844,0.00244166,-0.05360360,-0.019
 01737,0.06727143,0.00005651,-0.00004991,0.00064926,-0.00018554,-0.0003
 5469,-0.00075184,0.00025522,0.00093654,0.00099509,-0.05579061,-0.04534
 546,-0.02181770,0.00446408,0.01758118,0.01011713,-0.00192703,-0.023786
 07,-0.01304050,0.05386676,0.00008252,0.00082241,0.00100463,0.00034235,
 0.00096395,0.00128787,0.00010182,0.00063146,0.00068155,-0.04437380,-0.
 27162433,-0.11021391,-0.00607656,-0.01351461,-0.00844510,0.00162397,-0
 .00546438,-0.00270463,0.04702154,0.28301517,0.00113224,0.00306924,-0.0
 0588195,0.00062590,-0.00213261,0.00059560,-0.00169454,-0.00146691,0.00
 094837,-0.01882683,-0.09719303,-0.09587745,0.00252286,0.00887198,0.005
 36323,0.00058911,0.00641979,0.00370640,0.02177768,0.11429555,0.1138940
 7,-0.05031440,-0.00477598,0.03089906,-0.00020529,0.00051248,0.00068035
 ,0.00032327,-0.00024285,-0.00151708,-0.00008983,-0.00109023,-0.0003583
 6,0.00005919,-0.00017500,0.00018077,0.00021095,0.00009770,-0.00015278,
 0.00059282,-0.00001431,-0.00035240,0.04798202,-0.00583433,-0.05543405,
 0.05050766,-0.00071380,0.00127219,-0.00139865,0.00121643,0.00075810,-0
 .00154874,-0.00120507,-0.00552660,-0.00129873,-0.00016382,0.00008019,0
 .00001566,0.00008133,-0.00005309,0.00011328,0.00012418,0.00052975,-0.0
 0190664,0.00695671,0.06160868,0.02789472,0.03780090,-0.31884322,-0.000
 25415,0.00101986,-0.00006963,0.00093692,0.00103690,0.00053763,-0.00081
 269,-0.00339165,0.00070326,0.00007654,0.00001390,0.00015648,-0.0000568
 6,0.00006817,0.00012589,0.00010932,0.00006630,-0.00074053,-0.02988921,
 -0.03779839,0.34277753,-0.29243734,-0.07682503,0.05889123,0.00086555,0
 .00138763,0.00003057,0.00131921,-0.00080814,-0.00101308,0.00039187,0.0
 0065452,0.00085656,-0.00006180,-0.00003614,0.00000514,-0.00000462,-0.0
 0021782,-0.00055446,0.00023410,0.00009442,-0.00005475,-0.00001217,0.00
 111511,-0.00168784,0.30810144,-0.06541560,-0.06906841,0.01501955,-0.00
 241804,0.00113788,0.00020014,0.00088904,-0.00482581,-0.00339554,-0.000
 38980,0.00062641,0.00188090,0.00009784,-0.00001306,-0.00015452,0.00014
 589,0.00027019,-0.00019221,0.00020719,-0.00001826,0.00012281,-0.002701
 85,-0.00086859,0.00067135,0.08286025,0.08016831,0.06598674,0.01966419,
 -0.06315549,-0.00063745,0.00072390,0.00009778,0.00001029,-0.00265011,-
 0.00148112,-0.00144948,-0.00059309,0.00095097,0.00000360,0.00007147,-0
 .00006391,0.00003892,-0.00008018,0.00030185,0.00000937,0.00009180,0.00
 009520,0.02738382,0.00825270,-0.00284446,-0.06325090,-0.01414508,0.062
 72881,-0.17729060,0.12813301,-0.06571279,0.00027102,-0.00126135,-0.000
 29448,0.00062804,-0.00146632,-0.00003959,-0.00005083,-0.00007760,0.000
 29749,-0.00016460,0.00002105,0.00020495,-0.00006919,0.00005040,-0.0000
 7628,0.00004576,-0.00013870,0.00008987,0.00297832,-0.00433496,0.002771
 48,-0.01388435,0.01857921,-0.01017949,0.18339107,0.11794939,-0.1645161
 7,0.05865239,-0.00286465,-0.00377631,-0.00382891,0.00200856,0.00049889
 ,0.00033874,0.00063454,0.00027085,0.00203696,-0.00015558,0.00035609,-0
 .00032473,-0.00004704,-0.00000809,-0.00014815,-0.00024131,0.00014195,0
 .00006757,0.00139252,-0.00070216,-0.00003406,-0.00713090,0.00809263,-0
 .00353943,-0.13243274,0.18675211,-0.06938636,0.06756298,-0.08185054,-0
 .00086243,-0.00247265,-0.00149251,0.00081655,0.00024013,0.00003801,0.0
 0094624,-0.00142529,0.00119252,-0.00041030,0.00002017,0.00031178,0.000
 03512,0.00006307,-0.00006913,0.00006242,0.00004354,0.00011434,-0.02019
 724,0.01883410,-0.00591218,0.00570284,-0.00538247,0.00206344,0.0709499
 8,-0.06240395,0.08209504,0.00029232,-0.00146718,-0.00045360,-0.0527802
 0,-0.00370630,0.04153369,0.00126213,0.00048397,-0.00176897,-0.00316868
 ,0.00310515,-0.00031373,0.00055296,0.00030473,-0.00143488,0.00020775,0
 .00008616,-0.00005632,-0.00007396,0.00002720,0.00017722,0.00023662,0.0
 0000607,0.00015110,-0.00003433,0.00011541,0.00014181,-0.00010793,-0.00
 011880,-0.00001154,0.05487578,-0.00028325,0.00118024,0.00155497,-0.001
 48205,-0.04966363,0.01895595,-0.00159180,0.00027215,0.00022152,0.00343
 621,-0.00307197,0.00010736,-0.00000023,0.00025655,0.00152285,0.0000895
 0,-0.00000651,-0.00020508,0.00003330,0.00021695,0.00010180,0.00011104,
 -0.00002661,-0.00001385,-0.00005937,-0.00007330,-0.00004573,-0.0000346
 2,0.00014916,-0.00010569,-0.00244240,0.05331970,0.00045346,-0.00116234
 ,0.00046215,0.03162778,0.02802469,-0.32181546,0.00110088,-0.00028014,0
 .00020261,-0.00190468,0.00153187,0.00122579,0.00006231,0.00015169,-0.0
 0043917,0.00000528,-0.00011119,0.00008613,0.00009216,0.00004128,0.0001
 7735,0.00007050,0.00040820,0.00037308,-0.00004568,0.00004353,-0.000031
 75,-0.00007737,-0.00005422,0.00025400,-0.03238869,-0.03223084,0.342584
 75,0.00025692,-0.00184433,-0.00016591,-0.27912522,-0.08393613,0.055508
 91,-0.00085982,0.00421255,-0.00215869,0.00046647,-0.00095450,0.0016492
 1,0.00027871,0.00010976,0.00004052,0.00023881,0.00007787,-0.00044802,-
 0.00002267,0.00004838,-0.00008414,-0.00001780,0.00009683,0.00000540,0.
 00024437,0.00044687,0.00019860,0.00026926,0.00001410,-0.00014528,0.000
 27511,-0.00061121,-0.00127790,0.30474486,0.00135178,0.00174529,0.00022
 697,-0.09594464,-0.08248953,0.02343967,0.00233264,-0.00348482,0.001742
 20,0.00037169,0.00073825,-0.00145642,0.00002172,-0.00003201,-0.0001565
 0,-0.00043620,-0.00002973,-0.00017647,-0.00008699,-0.00006092,0.000135
 24,-0.00007451,-0.00009242,-0.00007335,-0.00006531,-0.00033959,0.00011
 657,-0.00002977,0.00014486,0.00002979,-0.00165729,-0.00104010,-0.00119
 609,0.08829281,0.08542675,0.00032183,-0.00066399,-0.00017376,0.0615566
 0,0.02296485,-0.06209381,-0.00111953,0.00163461,-0.00070767,-0.0011571
 3,-0.00047388,0.00092370,0.00003414,-0.00010063,0.00005783,0.00015700,
 0.00012576,0.00022455,0.00002448,-0.00005155,-0.00005228,0.00007246,0.
 00010903,-0.00003647,0.00021579,-0.00010739,0.00006799,-0.00005910,-0.
 00002756,-0.00011174,0.02701403,0.00946970,-0.00285127,-0.05918786,-0.
 02569280,0.06074464,-0.00576126,-0.00028184,0.00234293,0.00085726,-0.0
 0203185,-0.00024820,-0.05239274,-0.02547974,-0.01303906,0.00075315,-0.
 00034279,-0.00203171,-0.00003828,0.00005134,0.00017814,-0.00000113,0.0
 0017598,-0.00011311,0.00022246,0.00046133,0.00000098,-0.00000884,0.000
 16472,0.00003643,-0.00004281,-0.00184037,-0.00084402,0.00013171,-0.000
 05297,0.00011126,-0.00009089,0.00012815,-0.00003911,0.00017216,0.00005
 361,0.00012615,0.06292322,-0.00199296,0.00091525,0.00132980,0.00133723
 ,0.00045811,0.00020574,-0.03620973,-0.26054589,-0.11486635,0.00048166,
 -0.00001923,-0.00078371,-0.00002386,-0.00007107,0.00000063,0.00008197,
 0.00022403,0.00008757,0.00005333,0.00011273,0.00042734,0.00011230,0.00
 001531,-0.00003270,-0.00021188,-0.00027066,-0.00041501,-0.00002655,0.0
 0025953,-0.00001498,-0.00007915,-0.00001079,0.00003030,0.00002062,0.00
 017173,0.00018413,0.04155216,0.27699584,0.00131803,0.00054263,-0.00010
 755,-0.00038122,0.00010647,-0.00020159,-0.01947140,-0.11955417,-0.1114
 6843,0.00064212,0.00126409,0.00074475,-0.00006834,0.00001853,-0.000044
 06,-0.00008803,0.00008829,0.00007591,-0.00020809,-0.00019257,0.0004322
 3,0.00003439,0.00009028,0.00027340,0.00013941,0.00030227,0.00068784,0.
 00010118,-0.00012312,-0.00008584,0.00004277,-0.00010374,-0.00004410,0.
 00002835,0.00014700,-0.00003376,0.01778660,0.12397427,0.11249018,0.001
 00387,0.00138763,0.00146451,0.00134023,-0.00090852,0.00174480,-0.04876
 478,-0.00136059,0.00684168,-0.00590069,-0.00186211,-0.00048601,0.00011
 656,-0.00012531,-0.00003691,0.00011550,-0.00031961,0.00202110,-0.00002
 395,0.00008146,-0.00014372,0.00023325,0.00020038,-0.00027272,0.0000062
 2,0.00019831,-0.00006453,-0.00004722,-0.00011074,-0.00014598,-0.000149
 52,0.00011725,-0.00071875,0.00016423,-0.00008577,-0.00012825,0.0004313
 1,0.00176093,-0.00448502,0.05744543,-0.00001318,0.00020614,0.00136696,
 0.00106104,-0.00015375,-0.00051356,-0.00236032,-0.05018241,0.02739969,
 -0.00201014,-0.00049697,-0.00029735,-0.00012430,0.00009150,-0.00022179
 ,-0.00015160,0.00046152,0.00070240,0.00006864,0.00018089,0.00017210,-0
 .00007278,0.00016646,0.00005511,0.00011664,0.00003708,-0.00006039,0.00
 004881,-0.00004563,0.00001635,0.00009376,0.00019620,0.00001337,-0.0000
 2288,-0.00012263,-0.00005055,0.00274356,0.00544030,-0.02578097,0.00589
 939,0.04952965,-0.00092940,-0.00111825,0.00052697,-0.00109212,-0.00000
 218,0.00043408,0.01942307,0.03146085,-0.32540245,0.00149556,0.00036116
 ,0.00144399,-0.00004356,-0.00011782,0.00008234,0.00008780,0.00009569,-
 0.00019055,-0.00008915,0.00008425,0.00014099,0.00033118,0.00092940,0.0
 0020342,0.00000406,-0.00005008,0.00027349,0.00005629,0.00001149,-0.000
 04052,0.00014920,-0.00020633,0.00013012,-0.00002872,-0.00001051,0.0002
 5422,0.00045587,0.00401059,-0.00951492,-0.02202003,-0.03444380,0.34470
 422,0.00030186,0.00227227,0.00003749,-0.00443024,-0.00397552,0.0023314
 6,-0.15809845,0.11757177,-0.05507023,0.00034828,0.00115364,-0.00191825
 ,0.00002386,-0.00014894,0.00035521,0.00019866,-0.00020536,-0.00007771,
 -0.00002834,-0.00005743,0.00013740,-0.00003181,-0.00013537,-0.00003417
 ,0.00021851,-0.00004982,0.00018954,0.00008641,-0.00050813,-0.00003450,
 0.00013793,-0.00009852,0.00000533,-0.00111249,0.00138658,-0.00063840,0
 .00491004,-0.00455300,0.00211469,0.00337207,-0.00298935,0.00154792,0.1
 8145295,-0.00117705,0.00111391,-0.00010225,-0.00210187,-0.00031843,0.0
 0035231,0.12975312,-0.18767287,0.06599079,-0.00044360,0.00047662,-0.00
 056228,0.00022914,-0.00003441,-0.00024478,-0.00010219,0.00006504,-0.00
 013124,0.00005394,-0.00008105,0.00009310,0.00006392,-0.00007113,-0.000
 05501,-0.00001961,0.00016501,-0.00004682,0.00023593,0.00005110,0.00044
 017,-0.00003968,-0.00011678,-0.00001408,-0.00041960,0.00082509,-0.0001
 1318,0.01622537,-0.01350309,0.01037699,0.00035365,-0.00114080,-0.00163
 814,-0.13128810,0.19314649,-0.00069084,-0.00013371,-0.00021333,0.00131
 967,0.00046375,-0.00014881,-0.06152329,0.06694343,-0.07822007,0.001462
 65,-0.00092436,0.00058463,0.00008503,0.00018612,0.00012107,-0.00005491
 ,-0.00010394,0.00004129,-0.00004016,-0.00005610,-0.00003879,-0.0000052
 2,0.00013042,-0.00004359,0.00008721,-0.00006641,-0.00007937,-0.0002772
 5,-0.00007925,-0.00004821,0.00006068,-0.00009791,0.00027997,0.00030457
 ,-0.00020497,0.00066244,0.01045277,-0.01005115,0.00489010,-0.01933189,
 0.02000869,-0.00584027,0.06089153,-0.07024374,0.07772589,-0.09195663,-
 0.01169699,-0.00533040,-0.11994109,0.03199834,-0.01564613,-0.15039920,
 -0.02116363,0.01458457,-0.08903727,-0.00022632,0.00655421,0.00130776,0
 .00147064,-0.02419949,-0.00262453,-0.00313887,0.03535227,-0.00171713,0
 .00117133,-0.00576353,-0.00183674,0.00254679,0.00111981,-0.00511339,-0
 .03083198,-0.01747726,0.00316425,0.02033134,0.01202398,-0.00167352,-0.
 00072374,0.00051368,-0.02430930,0.02740923,-0.01326835,-0.01188962,-0.
 00212577,0.00284684,-0.00925709,-0.00220136,0.00061118,-0.02748249,-0.
 01125441,0.00727282,0.53286264,-0.01155468,-0.14448896,-0.02826972,0.0
 3191722,-0.12182328,0.01526095,-0.02097179,-0.09640764,0.00473664,-0.0
 0058435,-0.08951755,0.00818186,-0.00403901,-0.00387505,0.02547401,0.00
 012865,-0.00338208,0.01222793,0.00372850,0.00393969,-0.03156179,-0.000
 05338,-0.00178376,0.00068230,-0.00090421,-0.01523538,-0.00738864,-0.00
 709284,-0.02662178,-0.01471423,0.00491717,-0.00719867,0.00136342,-0.00
 568166,0.00389268,-0.00300473,-0.03188134,-0.01043917,0.00888780,-0.00
 534003,-0.00416271,0.00060612,0.02166256,0.00689011,-0.00598049,0.0009
 2684,0.53419663,-0.00548663,-0.02833081,-0.10417967,-0.01553818,0.0151
 3843,-0.09554829,0.01465463,0.00479229,-0.09207013,0.00715727,0.007911
 34,-0.15919338,0.00280664,0.00064216,-0.01821268,-0.00039379,0.0009381
 0,-0.01415790,0.00235621,0.00448003,-0.02283003,-0.00713546,-0.0355023
 7,-0.01691182,0.00078162,0.00532641,0.00050774,0.00224174,0.00889575,0
 .00276974,-0.02679512,0.02651788,-0.01112443,0.00398304,-0.00454819,-0
 .00009766,-0.01525699,-0.00390347,0.00186011,0.03586683,0.01172869,-0.
 00714209,-0.00989967,-0.00421987,0.00037495,-0.00030286,-0.00014974,0.
 53237856,-0.00320420,0.00222546,-0.00206105,-0.05978721,-0.05342619,-0
 .02987587,0.00145593,0.00161395,0.00057477,0.00044650,-0.00011590,0.00
 155087,-0.00009292,-0.00005027,0.00011532,-0.00004845,-0.00006919,-0.0
 0016150,0.00003153,-0.00039554,-0.00013337,-0.00009954,-0.00012119,-0.
 00009409,0.00020954,0.00010744,-0.00005959,0.00064888,0.00133243,0.000
 54524,0.00023843,0.00341173,0.00252081,-0.00166357,-0.02283958,-0.0139
 6386,-0.00017575,-0.00017732,-0.00035227,-0.00008541,-0.00008593,0.000
 04084,0.00013322,-0.00006898,-0.00001337,-0.00009667,0.02482235,0.0109
 6070,0.06208972,0.00384828,-0.00119205,0.00278620,-0.04355833,-0.25249
 505,-0.11115829,-0.00190703,0.00048820,-0.00013236,-0.00064182,0.00033
 710,-0.00172438,0.00006080,0.00029196,0.00002877,0.00001291,-0.0000444
 2,0.00008446,0.00005609,0.00020861,0.00048448,-0.00004579,0.00012773,-
 0.00001576,0.00004983,0.00021554,0.00004386,-0.00017299,-0.00104702,-0
 .00073104,0.00037116,0.00561741,0.00344053,0.00015051,-0.00525289,-0.0
 0420181,0.00035468,0.00026705,-0.00004405,0.00011368,-0.00000487,0.000
 02757,-0.00003727,0.00020518,0.00020962,-0.00249144,-0.02398309,-0.009
 71663,0.04383671,0.27626063,-0.00147139,0.00147832,-0.00058881,-0.0261
 6919,-0.11941250,-0.11248428,0.00058018,0.00017664,0.00010113,0.000016
 62,0.00129832,0.00112023,0.00008918,0.00001071,0.00009976,0.00006581,-
 0.00003080,-0.00006167,-0.00024569,-0.00041296,-0.00004677,-0.00004476
 ,0.00006280,0.00025121,-0.00010772,-0.00007326,-0.00011900,0.00000335,
 0.00056047,0.00077181,-0.00604768,-0.02544286,-0.00946977,0.00177792,0
 .00767786,0.00322305,0.00008108,-0.00018299,0.00004573,-0.00010511,-0.
 00009496,-0.00006304,0.00006235,0.00011806,-0.00004790,0.00110864,0.01
 364831,0.00357699,0.03040640,0.12061882,0.11369133\\-0.00000176,0.0000
 0213,-0.00000464,-0.00000819,-0.00000584,0.00001776,-0.00000582,0.0000
 0951,-0.00001397,0.00001895,-0.00000804,0.00000487,0.00002704,-0.00000
 333,-0.00001045,0.00002221,-0.00001190,0.00001250,0.00001822,-0.000006
 11,0.00000205,-0.00001578,0.00000504,-0.00000236,0.00000363,-0.0000042
 6,0.00000975,0.00000600,0.00000413,-0.00001462,-0.00002416,0.00000141,
 0.00001038,-0.00001001,-0.00001087,0.00002870,-0.00000450,0.00000597,-
 0.00001357,-0.00001912,0.00001302,-0.00001481,0.00000154,0.00001029,-0
 .00002688,-0.00000033,-0.00000165,-0.00000520,-0.00000791,0.00000048,0
 .00002048\\\@
 The archive entry for this job was punched.


 MOST BUREAUCRACIES FUNCTION LIKE A SEPTIC TANK.
 THE LARGE CHUNKS RISE TO THE TOP.
 Job cpu time:       0 days  3 hours  7 minutes  5.6 seconds.
 Elapsed time:       0 days  0 hours  2 minutes  6.7 seconds.
 File lengths (MBytes):  RWF=     88 Int=      0 D2E=      0 Chk=     18 Scr=      1
 Normal termination of Gaussian 16 at Tue Dec 10 18:31:17 2024.
39529.25user 71.16system 7:33.97elapsed 8723%CPU (0avgtext+0avgdata 10257808maxresident)k
0inputs+280944outputs (4419major+1271123minor)pagefaults 0swaps
