 Entering Gaussian System, Link 0=g16
 Initial command:
 /common/software/install/migrated/gaussian/g16.c01.avx2/g16/l1.exe "/tmp/quach062/27485037/Gau-801313.inp" -scrdir="/tmp/quach062/27485037/"
 Entering Link 1 = /common/software/install/migrated/gaussian/g16.c01.avx2/g16/l1.exe PID=    801317.
  
 Copyright (c) 1988-2019, Gaussian, Inc.  All Rights Reserved.
  
 This is part of the Gaussian(R) 16 program.  It is based on
 the Gaussian(R) 09 system (copyright 2009, Gaussian, Inc.),
 the Gaussian(R) 03 system (copyright 2003, Gaussian, Inc.),
 the Gaussian(R) 98 system (copyright 1998, Gaussian, Inc.),
 the Gaussian(R) 94 system (copyright 1995, Gaussian, Inc.),
 the Gaussian 92(TM) system (copyright 1992, Gaussian, Inc.),
 the Gaussian 90(TM) system (copyright 1990, Gaussian, Inc.),
 the Gaussian 88(TM) system (copyright 1988, Gaussian, Inc.),
 the Gaussian 86(TM) system (copyright 1986, Carnegie Mellon
 University), and the Gaussian 82(TM) system (copyright 1983,
 Carnegie Mellon University). Gaussian is a federally registered
 trademark of Gaussian, Inc.
  
 This software contains proprietary and confidential information,
 including trade secrets, belonging to Gaussian, Inc.
  
 This software is provided under written license and may be
 used, copied, transmitted, or stored only in accord with that
 written license.
  
 The following legend is applicable only to US Government
 contracts under FAR:
  
                    RESTRICTED RIGHTS LEGEND
  
 Use, reproduction and disclosure by the US Government is
 subject to restrictions as set forth in subparagraphs (a)
 and (c) of the Commercial Computer Software - Restricted
 Rights clause in FAR 52.227-19.
  
 Gaussian, Inc.
 340 Quinnipiac St., Bldg. 40, Wallingford CT 06492
  
  
 ---------------------------------------------------------------
 Warning -- This program may not be used in any manner that
 competes with the business of Gaussian, Inc. or will provide
 assistance to any competitor of Gaussian, Inc.  The licensee
 of this program is prohibited from giving any competitor of
 Gaussian, Inc. access to this program.  By using this program,
 the user acknowledges that Gaussian, Inc. is engaged in the
 business of creating and licensing software in the field of
 computational chemistry and represents and warrants to the
 licensee that it is not a competitor of Gaussian, Inc. and that
 it will not use this program in any manner prohibited above.
 ---------------------------------------------------------------
  

 Cite this work as:
 Gaussian 16, Revision C.01,
 M. J. Frisch, G. W. Trucks, H. B. Schlegel, G. E. Scuseria, 
 M. A. Robb, J. R. Cheeseman, G. Scalmani, V. Barone, 
 G. A. Petersson, H. Nakatsuji, X. Li, M. Caricato, A. V. Marenich, 
 J. Bloino, B. G. Janesko, R. Gomperts, B. Mennucci, H. P. Hratchian, 
 J. V. Ortiz, A. F. Izmaylov, J. L. Sonnenberg, D. Williams-Young, 
 F. Ding, F. Lipparini, F. Egidi, J. Goings, B. Peng, A. Petrone, 
 T. Henderson, D. Ranasinghe, V. G. Zakrzewski, J. Gao, N. Rega, 
 G. Zheng, W. Liang, M. Hada, M. Ehara, K. Toyota, R. Fukuda, 
 J. Hasegawa, M. Ishida, T. Nakajima, Y. Honda, O. Kitao, H. Nakai, 
 T. Vreven, K. Throssell, J. A. Montgomery, Jr., J. E. Peralta, 
 F. Ogliaro, M. J. Bearpark, J. J. Heyd, E. N. Brothers, K. N. Kudin, 
 V. N. Staroverov, T. A. Keith, R. Kobayashi, J. Normand, 
 K. Raghavachari, A. P. Rendell, J. C. Burant, S. S. Iyengar, 
 J. Tomasi, M. Cossi, J. M. Millam, M. Klene, C. Adamo, R. Cammi, 
 J. W. Ochterski, R. L. Martin, K. Morokuma, O. Farkas, 
 J. B. Foresman, and D. J. Fox, Gaussian, Inc., Wallingford CT, 2019.
 
 ******************************************
 Gaussian 16:  ES64L-G16RevC.01  3-Jul-2019
                27-Nov-2024 
 ******************************************
 %chk=2dp_0.chk
 %lindaworkers=in-cn0088
 %nprocshared=128
 Will use up to  128 processors via shared memory.
 %mem=59800MB
 SetLPE:  input flags=" -workerwait 900 -opt "Tsnet.Node.lindarsharg: ssh " "
 SetLPE:    new flags=" -workerwait 900 -opt "Tsnet.Node.lindarsharg: ssh " -opt 'Tsnet.Node.lindarsharg: ssh'  -nodelist 'in-cn0088' -env GAUSS_MDEF=7838105600 -env GAUSS_EXEDIR="/common/software/install/migrated/gaussian/g16.c01.avx2/g16/bsd:/common/software/install/migrated/gaussian/g16.c01.avx2/g16/local:/common/software/install/migrated/gaussian/g16.c01.avx2/g16/extras:/common/software/install/migrated/gaussian/g16.c01.avx2/g16""
 Will use up to    1 processors via Linda.
 ----------------------------------------------------------------------
 # opt=calcfc # freq # m06l/6-311++g(d,p)/auto # nosymm integral=grid=u
 ltrafine # scf=(tight,intrep,xqc) # SCRF=(SMD,Solvent=n,n-DiMethylForm
 amide)
 ----------------------------------------------------------------------
 1/10=4,18=20,19=15,26=6,38=1/1,3;
 2/9=110,12=2,15=1,17=6,18=5,40=1/2;
 3/5=4,6=6,7=1111,11=2,25=1,30=1,70=32201,71=2,72=148,74=-53,75=-5,82=28,140=1/1,2,3;
 4//1;
 5/5=2,8=3,13=1,17=20,32=2,38=5,53=148/2,8;
 8/6=4,10=90,11=11/1;
 11/6=1,8=1,9=11,15=111,16=1,31=1/1,2,10;
 10/6=1,13=1,31=1/2;
 6/7=2,8=2,9=2,10=2,28=1/1;
 7/10=1,25=1,30=1/1,2,3,16;
 1/10=4,18=20,19=15,26=6/3(2);
 2/9=110,15=1/2;
 99//99;
 2/9=110,15=1/2;
 3/5=4,6=6,7=1111,11=2,25=1,30=1,70=32205,71=1,72=148,74=-53,75=-5,82=28/1,2,3;
 4/5=5,16=3,69=1/1;
 5/5=2,8=3,13=1,17=20,32=2,38=5,53=148/2,8;
 7/30=1/1,2,3,16;
 1/18=20,19=15,26=6/3(-5);
 2/9=110,15=1/2;
 6/7=2,8=2,9=2,10=2,19=2,28=1/1;
 99/9=1/99;
 ----------------
 3D Atomistic (5)
 ----------------
 Symbolic Z-matrix:
 Charge =  0 Multiplicity = 1
 C                    -1    12.15782   9.44537   21.33075 
 C                    -1    11.43553   11.7633   21.53514 
 C                    -1    13.80673   11.21077   21.69712 
 C                    -1    12.2866   10.59592   23.49952 
 H                    -1    13.04997   9.90201   23.85004 
 H                    -1    11.30124   10.18624   23.72687 
 H                    -1    12.42327   11.5818   23.94136 
 H                    -1    12.27588   9.60559   20.25629 
 H                    -1    11.13837   9.1317    21.55961 
 H                    -1    12.87099   8.70394   21.6921 
 H                    -1    11.58525   11.89234   20.46127 
 H                    -1    10.42992   11.3979   21.75141 
 H                    -1    13.98451   12.14433   22.2312 
 H                    -1    13.87684   11.35292   20.6163 
 H                    -1    14.51089   10.45048   22.03819 
 N                    -1    12.42071   10.74635   22.01845 
 
 All variables have been frozen.
 Error termination via Lnk1e in /common/software/install/migrated/gaussian/g16.c01.avx2/g16/l101.exe at Wed Nov 27 17:24:02 2024.
 Job cpu time:       0 days  0 hours  0 minutes 33.7 seconds.
 Elapsed time:       0 days  0 hours  0 minutes  0.3 seconds.
 File lengths (MBytes):  RWF=      6 Int=      0 D2E=      0 Chk=      1 Scr=      1
Command exited with non-zero status 1
33.50user 0.28system 0:02.32elapsed 1453%CPU (0avgtext+0avgdata 1109676maxresident)k
400inputs+1336outputs (508major+4210minor)pagefaults 0swaps
